# vtk DataFile Version 5.1
vtk output
ASCII
DATASET UNSTRUCTURED_GRID
POINTS 5256 float
-13.8484 1.40455 31.219 -13.7807 1.38343 31.1502 -13.7889 1.45999 31.1394 
-13.7168 1.33932 30.7183 -14.027 1.94228 31.051 -13.7122 1.33578 30.6845 
-13.6453 1.81974 30.6286 -14.068 1.39074 30.1599 -14.0005 1.86308 30.1056 
-14.2258 1.41904 30.0026 -14.7828 1.58566 29.5785 -14.746 1.52127 29.5909 
-14.8037 1.53293 29.5491 -15.0734 1.09875 29.5941 -15.4508 1.68112 29.359 
-15.6907 1.23218 29.2906 -16.0784 1.81964 29.0946 -16.3558 1.39047 29.1706 
-16.1778 1.83353 28.9173 -16.6639 1.45013 28.915 -16.3912 1.85373 28.4125 
-16.8851 1.48026 28.5321 -16.7666 1.60838 28.4041 -17.273 1.5643 28.3555 
-17.518 1.62139 28.2878 -17.5543 1.57994 28.3233 -17.6052 1.64392 28.3095 
-18.2595 1.81633 28.4565 -17.987 2.24916 28.4012 -18.7252 2.44244 28.5571 
-17.7642 2.70535 28.5326 -18.714 2.46481 28.5629 -18.0754 2.78654 28.5895 
-18.4947 2.89605 28.6613 -17.5719 3.17788 28.7821 -18.2874 3.35996 28.852 
-17.3623 3.64186 28.9659 -18.2199 3.53519 28.9557 -17.546 3.69076 29.0078 
-18.1123 3.84103 29.167 -18.0275 4.10958 29.3808 -18.6207 3.97807 29.3343 
-17.9633 4.33502 29.5812 -18.8702 4.04411 29.3982 -18.6618 4.50863 29.5862 
-19.3369 4.67072 29.5027 -19.2631 4.86952 29.6285 -19.9816 4.95483 29.5403 
-19.1757 5.15863 29.8702 -19.852 5.32131 29.7912 -19.8011 5.50964 29.9666 
-20.543 5.55673 29.8809 -20.4844 5.91109 30.3203 -21.2386 5.93765 30.2359 
-20.4695 6.02264 30.4693 -21.1914 6.20789 30.5636 -21.1771 6.29667 30.675 
-21.5287 6.2967 30.6373 -21.9216 6.59744 31.0352 -21.9353 6.40404 30.7416 
-22.6498 6.66691 30.948 -22.6644 6.59286 30.8632 -22.9124 6.65814 30.921 
-22.7385 6.26313 30.5118 -23.4461 6.62449 30.8681 -23.1689 6.18877 30.4753 
-23.5473 6.29124 30.5907 -23.6464 6.03704 30.4438 -24.2922 6.48857 30.795 
-24.3013 6.48512 30.7945 -24.2991 6.49129 30.7986 -24.8501 6.12318 30.7827 
-24.7159 6.62129 31.2115 -25.1192 6.21778 31.2208 -24.7407 6.65842 31.6833 
-25.0703 6.2376 31.7027 -24.8907 6.21665 32.0681 -25.0575 6.01543 32.2123 
-24.8106 6.20637 32.2139 -25.2263 5.81517 32.364 -25.0735 5.79984 32.718 
-25.5419 5.40372 32.5834 -25.4618 5.39345 32.7292 -25.7087 5.20249 32.7276 
-25.8755 5.00127 32.8718 -25.9556 5.01153 32.726 -26.169 4.57887 33.0072 
-26.2935 4.59336 32.7442 -26.2995 4.23102 32.7908 -26.1387 4.23746 32.3279 
-26.0742 4.04074 32.8398 -25.8008 3.94425 32.4024 -25.6237 3.81743 32.4379 
-25.5322 3.86916 32.2575 -24.847 3.56983 32.0743 -25.1002 3.74674 32.024 
-24.7292 3.64253 31.8529 -24.5926 3.73011 31.6014 -24.3075 3.52521 31.6587 
-23.7994 3.50954 31.236 -23.936 3.42196 31.4875 -23.4567 3.29145 31.3012 
-23.2441 3.15572 31.3416 -23.1651 3.21244 31.2069 -22.6061 2.93801 31.4385 
-22.4475 3.0293 31.1287 -21.7607 2.80322 31.0675 -21.9806 2.90703 31.0304 
-21.711 2.8368 30.9789 -21.5081 2.96071 30.5948 -20.9029 2.68893 30.6951 
-21.2934 3.05574 30.1262 -20.7892 2.618 30.2373 -20.7381 2.52716 29.9298 
-20.7423 2.5496 30.2513 -20.7185 2.47621 29.7841 -20.545 1.97095 29.8685 
-20.6816 2.49917 29.7149 -20.3947 2.40439 29.3489 -20.3524 2.82017 29.2993 
-20.3047 2.8802 29.262 -20.3496 2.89254 29.2902 -20.2278 3.0253 29.286 
-20.8752 3.0501 29.6925 -20.8112 3.52655 29.518 -20.958 3.34936 29.6446 
-21.1181 3.60727 29.5939 -21.174 3.1385 29.9171 -21.5421 3.2401 30.0755 
-21.9467 3.34891 30.2045 -22.1252 3.21291 30.4957 -22.6706 3.53516 30.3065 
-22.7304 3.4847 30.3954 -22.8595 3.58666 30.3682 -23.4419 3.74489 30.5886 
-23.2141 3.95599 30.2821 -23.3885 4.21247 30.2299 -23.0576 4.12229 30.1079 
-23.4855 4.72964 30.0645 -22.7397 4.53255 29.8794 -23.1944 5.15322 29.9383 
-22.4666 4.92742 29.7565 -22.4649 4.95939 29.7525 -22.4471 4.95539 29.7474 
-22.436 4.97776 29.7532 -21.4786 5.21454 29.694 -21.8479 5.31129 29.7728 
-21.3999 5.41456 29.8075 -21.3 5.69388 29.9958 -20.713 5.53949 29.8649 
-13.862 1.3397 31.1472 -14.4302 1.0388 31.1254 -14.4539 1.01415 30.6468 
-14.5935 1.03346 30.4206 -14.3758 1.24588 30.1457 -14.7629 1.05694 30.1288 
-15.055 1.09546 29.6132 -15.0923 1.07659 29.6116 -15.9504 0.794235 29.2992 
-15.6838 0.746845 29.5911 -16.2747 0.387129 29.552 -16.2543 0.38388 29.5772 
-16.2939 0.367555 29.5751 -16.5171 0.258541 30.0446 -17.152 0.22352 29.5017 
-17.2557 0.132938 29.6509 -17.9613 0.310121 29.6832 -17.4415 0.00542992 29.9784 
-18.1351 0.131769 29.8875 -17.5348 0.109926 30.434 -18.2868 0.14022 30.3494 
-17.5119 0.259935 30.6257 -18.2313 0.44391 30.7102 -18.2208 0.506693 30.788 
-18.7519 0.642284 30.234 -18.7285 0.938846 30.6772 -19.4076 0.831108 30.1391 
-19.3598 1.16775 30.5796 -19.9674 1.17746 30.0339 -19.5086 1.25475 30.5523 
-19.9487 1.34535 30.2688 -19.9389 1.48241 30.4765 -20.3997 1.73361 29.9151 
-20.4431 1.92014 30.3654 -20.4895 1.98951 30.3514 -20.4342 1.98125 30.4448 
-20.7491 2.58118 30.7257 -20.3828 2.2773 30.8046 -20.3386 2.50172 31.0622 
-19.8742 1.87626 30.9665 -19.6972 2.35633 31.2738 -19.255 1.74189 31.2627 
-19.549 2.32505 31.3671 -19.1881 1.96596 31.4526 -19.1032 2.23451 31.6664 
-18.5266 2.0448 31.9926 -18.6261 2.13584 31.9701 -18.5043 2.11022 32.04 
-18.9871 2.55433 31.8768 -18.9231 2.71309 31.9623 -19.3752 2.81449 31.8013 
-19.5362 2.91843 31.7705 -19.5573 2.85483 31.7226 -19.7469 2.9038 31.7497 
-20.3097 2.91328 31.6881 -20.2877 3.0443 31.8493 -21.1029 3.13385 32.0535 
-20.7899 3.18395 32.0806 -21.0808 3.26486 32.2147 -21.0193 3.52923 32.4903 
-21.5831 3.40452 32.446 -21.8125 3.74981 32.8557 -21.874 3.48543 32.5801 
-22.3762 3.62509 32.8115 -22.6888 3.57595 32.7843 -22.6672 3.706 32.9455 
-23.482 3.79652 33.1497 -23.1694 3.84567 33.1769 -23.4604 3.92658 33.3109 
-23.3984 4.1919 33.5865 -23.9848 4.07156 33.5392 -24.1785 4.43391 33.9505 
-24.2496 4.14518 33.6612 -24.8673 4.31351 33.8923 -25.032 4.29734 33.8767 
-25.0187 4.35383 33.9351 -25.3911 4.43941 33.8197 -25.58 4.66329 33.7702 
-25.6582 4.49826 33.7161 -25.5053 4.96554 33.7389 -25.979 4.54844 33.2631 
-25.6959 4.98032 33.2372 -14.265 2.00633 31.1329 -14.1894 2.06834 31.0171 
-14.011 2.10369 30.5524 -14.6304 2.35218 30.4536 -14.5914 2.15818 30.0037 
-15.1853 2.4486 29.9022 -14.6247 2.01207 29.8493 -15.2501 2.14948 29.5764 
-15.321 1.96745 29.471 -15.3736 2.17131 29.4388 -15.9258 1.98183 28.925 
-13.9962 1.87309 30.1102 -14.0067 1.8747 30.1034 -14.6501 1.62934 31.6168 
-14.3543 1.55129 31.5461 -14.544 1.74301 31.5007 -14.9771 2.1867 31.1897 
-14.7577 2.40072 30.9128 -14.9332 2.65848 30.8604 -15.1194 2.6724 30.3594 
-15.168 2.7349 30.346 -15.1788 2.68196 30.286 -15.6198 3.001 29.7836 
-15.3805 2.70389 29.848 -15.5554 2.84897 29.331 -15.4388 2.68695 29.3647 
-15.5219 2.67949 28.9394 -15.5408 2.61488 28.8838 -15.6289 2.70059 28.8632 
-16.1525 2.81948 28.6863 -16.1302 2.91278 28.7818 -16.5152 2.91301 28.7404 
-16.8736 3.00435 28.7777 -16.9123 2.89367 28.7003 -17.7045 2.85778 28.62 
-17.0417 2.51983 28.4362 -14.7677 1.15074 31.5539 -14.9083 1.18947 31.6181 
-14.9359 1.09879 31.5426 -14.8992 0.901058 31.093 -14.7215 0.935491 30.6283 
-15.5067 0.746866 30.2633 -15.4119 0.809087 30.0915 -15.5584 0.747747 30.0837 
-15.3422 1.7998 31.5976 -15.1487 2.01574 31.4003 -15.5115 2.32832 31.3207 
-15.6493 1.38416 31.7849 -16.01 1.95828 31.4864 -16.3155 1.54183 31.6675 
-16.9927 1.70612 31.5934 -16.5699 1.10128 31.6561 -17.2435 1.26258 31.5665 
-17.4394 0.791809 31.3306 -17.9393 1.4349 31.5616 -18.1174 0.955339 31.2582 
-18.5832 1.59528 31.5658 -18.6829 1.27177 31.118 -18.6402 1.60002 31.5591 
-19.3023 1.52024 31.0192 -18.6626 1.6137 31.5549 -15.7255 0.880115 31.4864 
-15.4107 0.773576 31.0548 -15.3919 0.738636 30.5821 -15.8448 0.914425 31.5495 
-15.8546 0.854974 31.4758 -16.6327 0.842411 31.3939 -16.6046 0.630687 30.9453 
-16.7721 0.600483 30.9312 -16.5983 0.547489 30.7829 -16.5974 0.384479 30.4988 
-16.3298 0.463129 30.5173 -16.1712 0.393964 30.0641 -15.7952 0.694551 31.0238 
-15.6594 0.659986 30.5636 -15.1802 3.25052 31.2726 -15.113 3.23166 31.2457 
-15.1569 3.26927 31.2361 -15.1045 3.21298 30.9844 -15.6964 3.39087 30.6831 
-15.2413 3.23132 30.7528 -15.6845 3.32791 30.5389 -15.6666 3.18196 30.2343 
-15.8077 3.33621 30.199 -15.9043 3.32872 29.7104 -16.1004 3.21957 29.2243 
-16.0906 3.35664 29.4319 -16.4286 3.42339 29.1625 -16.6484 3.58553 29.1178 
-16.6847 3.47858 29.0402 -17.3301 3.73146 29.0256 -15.1533 2.74156 31.3053 
-15.072 3.15079 30.7814 -15.5143 2.84823 31.5623 -15.7294 2.38702 31.3997 
-15.9001 3.43477 31.3592 -15.7824 3.50748 31.138 -16.2631 3.72605 30.5786 
-16.1426 3.66631 30.1201 -16.6328 4.06391 30.495 -16.4048 3.97827 30.0513 
-16.6031 4.17584 30.0043 -16.5433 4.01633 29.5522 -17.1972 4.20793 29.4571 
-16.5501 3.97969 29.509 -17.2123 4.13535 29.3762 -17.4264 4.19168 29.4346 
-16.2989 3.06459 31.8955 -15.7578 2.91746 31.6968 -16.0623 3.30523 31.6136 
-16.6321 3.625 31.4917 -16.4091 3.74383 31.0399 -17.0104 4.02215 30.9392 
-16.8455 4.12611 30.6329 -17.2784 4.2498 30.8807 -16.7582 4.1787 30.4665 
-17.5158 4.45802 30.8281 -17.343 4.48405 30.364 -17.9448 4.76142 30.2633 
-17.928 4.53106 29.8158 -18.6001 4.69283 29.7226 -16.146 2.51103 31.7081 
-16.7538 2.1563 31.689 -16.7659 2.14822 31.6888 -17.2316 1.77131 31.6879 
-17.8961 1.55664 31.6446 -17.8098 1.93852 32.0497 -17.9966 1.9854 32.0572 
-17.8006 1.97161 32.0801 -17.6148 2.40853 32.2872 -17.0397 2.25518 32.1248 
-16.6261 2.65893 32.1593 -16.6925 2.52681 32.1266 -16.5635 2.64152 32.1255 
-16.5729 2.72352 32.1138 -16.7955 3.19658 32.0283 -16.9678 3.34121 31.991 
-16.6425 3.61804 31.5105 -17.314 3.78074 31.4173 -17.3069 3.7869 31.4068 
-17.3341 3.79398 31.4134 -17.6532 4.35386 31.0534 -17.9542 4.44257 31.2624 
-18.2102 4.8408 31.183 -18.3868 4.577 31.6777 -18.4516 4.70197 31.6545 
-18.5449 4.62326 31.7937 -18.7699 5.16741 31.5597 -18.9668 4.74609 32.0727 
-18.9571 5.22282 31.6905 -19.158 5.06519 32.0106 -19.3231 5.33135 31.9582 
-19.5909 4.92679 32.4615 -19.7535 5.46535 32.3739 -20.0938 5.07789 32.8671 
-19.8527 5.49418 32.4459 -20.1438 5.22709 32.8423 -20.3889 5.64824 32.7611 
-20.2433 5.11993 32.9508 -20.8179 5.28205 33.2421 -20.9391 4.81064 33.2905 
[...]
POINT_DATA 5256
SCALARS scalars unsigned_short
LOOKUP_TABLE default
3 3 3 3 3 3 3 3 3 
3 3 3 3 3 3 3 3 3 
3 3 3 3 3 3 3 3 3 
3 3 3 3 3 3 3 3 3 
3 3 3 3 3 3 3 3 3 
3 3 3 3 3 3 3 3 3 
3 3 3 3 3 3 3 3 3 
3 3 3 3 3 3 3 3 3 
3 3 3 3 3 3 3 3 3 
3 3 3 3 3 3 3 3 3 
3 3 3 3 3 3 3 3 3 
3 3 3 3 3 3 3 3 3 
3 3 3 3 3 3 3 3 3 
3 3 3 3 3 3 3 3 3 
3 3 3 3 3 3 3 3 3 
3 3 3 3 3 3 3 3 3 
3 3 3 3 3 3 3 3 3 
3 3 3 3 3 3 3 3 3 
3 3 3 3 3 3 3 3 3 
3 3 3 3 3 3 3 3 3 
3 3 3 3 3 3 3 3 3 
3 3 3 3 3 3 3 3 3 
3 3 3 3 3 3 3 3 3 
3 3 3 3 3 3 3 3 3 
3 3 3 3 3 3 3 3 3 
3 3 3 3 3 3 3 3 3 
3 3 3 3 3 3 3 3 3 
3 3 3 3 3 3 3 3 3 
3 3 3 3 3 3 3 3 3 
3 3 3 3 3 3 3 3 3 
3 3 3 3 3 3 3 3 3 
3 3 3 3 3 3 3 3 3 
3 3 3 3 3 3 3 3 3 
3 3 3 3 3 3 3 3 3 
3 3 3 3 3 3 3 3 3 
3 3 3 3 3 3 3 3 3 
3 3 3 3 3 3 3 3 3 
3 3 3 3 3 3 3 3 3 
3 3 3 3 3 3 3 3 3 
3 3 3 3 3 3 3 3 3 
3 3 3 3 3 3 3 3 3 
3 3 3 3 3 3 3 3 3 
3 3 3 3 3 3 3 3 3 
3 3 3 3 3 3 3 3 3 
3 3 3 3 3 3 3 3 3 
3 3 3 3 3 3 3 3 3 
3 3 3 3 3 3 3 3 3 
3 3 3 3 3 3 3 3 3 
3 3 3 3 3 3 3 3 3 
3 3 3 3 3 3 3 3 3 
3 3 3 3 3 3 3 3 3 
3 3 3 3 3 3 3 3 3 
3 3 3 3 3 3 3 3 3 
3 3 3 3 3 3 3 3 3 
3 3 3 3 3 3 3 3 3 
3 3 3 3 3 3 3 3 3 
3 3 3 3 3 3 3 3 3 
3 3 3 3 3 3 3 3 3 
3 3 3 3 3 3 3 3 3 
3 3 3 3 3 3 3 3 3 
3 3 3 3 3 3 3 3 3 
3 3 3 3 3 3 3 3 3 
3 3 3 3 3 3 3 3 3 
3 3 3 3 3 3 3 3 3 
3 3 3 3 3 3 3 3 3 
3 3 3 3 3 3 3 3 3 
3 3 3 3 3 3 3 3 3 
3 3 3 3 3 3 3 3 3 
3 3 3 3 3 3 3 3 3 
3 3 3 3 3 3 3 3 3 
3 3 3 3 3 3 3 3 3 
3 3 3 3 3 3 3 3 3 
3 3 3 3 3 3 3 3 3 
3 3 3 3 3 3 3 3 3 
3 3 3 3 3 3 3 3 3 
3 3 3 3 3 3 3 3 3 
3 3 3 3 3 3 3 3 3 
3 3 3 3 3 3 3 3 3 
3 3 3 3 3 3 3 3 3 
3 3 3 3 3 3 3 3 3 
3 3 3 3 3 3 3 3 3 
3 3 3 3 3 3 3 3 3 
3 3 3 3 3 3 3 3 3 
3 3 3 3 3 3 3 3 3 
3 3 3 3 3 3 3 3 3 
3 3 3 3 3 3 3 3 3 
3 3 3 3 3 3 4 4 4 
4 4 4 4 4 4 4 4 4 
4 4 4 4 4 4 4 4 4 
4 4 4 4 4 4 4 4 4 
4 4 4 4 4 4 4 4 4 
4 4 4 4 4 4 4 4 4 
4 4 4 4 4 4 4 4 4 
4 4 4 4 4 4 4 4 4 
4 4 4 4 4 4 4 4 4 
4 4 4 4 4 4 4 4 4 
4 4 4 4 4 4 4 4 4 
4 4 4 4 4 4 4 4 4 
4 4 4 4 4 4 4 4 4 
4 4 4 4 4 4 4 4 4 
4 4 4 4 4 4 4 4 4 
4 4 4 4 4 4 4 4 4 
4 4 4 4 4 4 4 4 4 
4 4 4 4 4 4 4 4 4 
4 4 4 4 4 4 4 4 4 
4 4 4 4 4 4 4 4 4 
4 4 4 4 4 4 4 4 4 
4 4 4 4 4 4 4 4 4 
4 4 4 4 4 4 4 4 4 
4 4 4 4 4 4 4 4 4 
4 4 4 4 4 4 4 4 4 
4 4 4 4 4 4 4 4 4 
4 4 4 4 4 4 4 4 4 
4 4 4 4 4 4 4 4 4 
4 4 4 4 4 4 4 4 4 
4 4 4 4 4 4 4 4 4 
4 4 4 4 4 4 4 4 4 
4 4 4 4 4 4 4 4 4 
4 4 4 4 4 4 4 4 4 
4 4 4 4 4 4 4 4 4 
4 4 4 4 4 4 4 4 4 
4 4 4 4 4 4 4 4 4 
4 4 4 4 4 4 4 4 4 
4 4 4 4 4 4 4 4 4 
4 4 4 4 4 4 4 4 4 
4 4 4 4 4 4 4 4 4 
4 4 4 4 4 4 4 4 4 
4 4 4 4 4 4 4 4 4 
4 4 4 4 4 4 4 4 4 
4 4 4 4 4 4 4 4 4 
4 4 4 4 4 4 4 4 4 
4 4 4 4 4 4 4 4 4 
4 4 4 4 4 4 4 4 4 
4 4 4 4 4 4 4 4 4 
4 4 4 4 4 4 4 4 4 
4 4 4 4 4 4 4 4 4 
4 4 4 4 4 4 4 4 4 
4 4 4 4 4 4 4 4 4 
4 4 4 4 4 4 4 4 4 
4 4 4 4 4 4 4 4 4 
4 4 4 4 4 4 4 4 4 
4 4 4 4 4 4 4 4 4 
4 4 4 4 4 4 4 4 4 
4 4 4 4 4 4 4 4 4 
4 4 4 4 4 4 4 4 4 
4 4 4 4 4 4 4 4 4 
4 4 4 4 4 4 4 4 4 
4 4 4 4 4 4 4 4 4 
4 4 4 4 4 4 4 4 4 
4 4 4 4 4 4 4 4 4 
4 4 4 4 4 4 4 4 4 
4 4 4 4 4 4 4 4 4 
4 4 4 4 4 4 4 4 4 
4 4 4 4 4 4 4 4 4 
4 4 4 4 4 4 4 4 4 
4 4 4 4 4 4 4 4 4 
4 4 4 4 4 4 4 4 4 
4 4 4 4 4 4 4 4 4 
4 4 4 4 4 4 4 4 4 
4 4 4 4 4 4 4 4 4 
4 4 4 4 4 4 4 4 4 
4 4 4 4 4 4 4 4 4 
4 4 4 4 4 4 4 4 4 
4 4 4 4 4 4 4 4 4 
4 4 4 4 4 4 4 4 4 
4 4 4 4 4 4 4 4 4 
4 4 4 4 4 4 4 4 4 
4 4 4 4 4 4 4 4 4 
4 4 4 4 4 4 4 4 4 
4 4 4 4 4 4 4 4 4 
4 4 4 4 4 4 4 4 4 
4 4 4 4 4 4 4 4 4 
4 4 4 4 4 4 4 4 4 
4 4 4 4 4 4 4 4 4 
4 4 4 4 4 4 4 4 4 
4 4 4 4 4 4 4 4 4 
4 4 4 4 4 4 4 4 4 
4 4 4 4 4 4 4 4 4 
4 4 4 4 4 4 4 4 4 
4 4 4 4 4 4 4 4 4 
4 4 4 4 4 4 4 4 4 
4 4 4 4 4 4 4 4 4 
4 4 4 4 4 4 4 4 4 
4 4 4 4 4 4 4 4 4 
4 4 4 4 4 4 4 4 4 
4 4 4 4 4 4 4 4 4 
4 4 4 4 4 4 4 4 4 
4 4 4 4 4 4 4 4 4 
4 4 4 4 4 4 4 4 4 
4 4 4 4 4 4 4 4 4 
4 4 4 4 4 4 4 4 4 
4 4 4 4 4 4 4 4 4 
4 4 4 4 4 4 4 4 4 
4 4 4 4 4 4 4 4 4 
4 4 4 4 4 4 4 4 4 
4 4 4 4 4 4 4 4 4 
4 4 4 4 4 4 4 4 4 
4 4 4 4 4 4 4 4 4 
4 4 4 4 4 4 4 4 4 
4 4 4 4 4 4 4 4 4 
4 4 4 4 4 4 4 4 4 
4 4 4 4 4 4 4 4 4 
4 4 4 4 4 4 4 4 4 
4 4 4 4 4 4 4 4 4 
4 4 4 4 4 4 4 4 4 
4 4 4 4 4 4 4 4 4 
4 4 4 4 4 4 4 4 4 
4 4 4 4 4 4 4 4 4 
4 4 4 4 4 4 4 4 4 
4 4 4 4 4 4 4 4 4 
4 4 4 4 4 4 4 4 4 
4 4 4 4 4 4 4 4 4 
4 4 4 4 4 4 4 4 4 
4 4 4 4 4 4 4 4 4 
4 4 4 4 4 4 4 4 4 
4 4 4 4 4 4 4 4 4 
4 4 4 4 4 4 4 4 4 
4 4 4 4 4 4 4 4 4 
4 4 4 4 4 4 4 4 4 
4 4 4 4 4 4 4 4 4 
4 4 4 4 4 4 4 4 4 
4 4 4 4 4 4 4 4 4 
4 4 4 4 4 4 4 4 4 
4 4 4 4 4 4 4 4 4 
4 4 4 4 4 4 4 4 4 
4 4 4 4 4 4 4 4 4 
4 4 4 4 4 4 4 4 4 
4 4 4 4 4 4 4 4 4 
4 4 4 4 4 4 4 4 4 
4 4 4 4 4 4 4 4 4 
4 4 4 4 4 4 4 4 4 
4 4 4 4 4 4 4 4 4 
4 4 4 4 4 4 4 4 4 
4 4 4 4 4 4 4 4 4 
4 4 4 4 4 4 4 4 4 
4 4 4 4 4 4 4 4 4 
4 4 4 4 4 4 4 4 4 
4 4 4 4 4 4 4 4 4 
4 4 4 4 4 4 4 4 4 
4 4 4 4 4 4 4 4 4 
4 4 4 4 4 4 4 4 4 
4 4 4 4 4 4 4 4 4 
4 4 4 4 4 4 4 4 4 
4 4 4 4 4 4 4 4 4 
4 4 4 4 4 4 4 4 4 
4 4 4 4 4 4 4 4 4 
4 4 4 4 4 4 4 4 4 
4 4 4 4 4 4 4 4 4 
4 4 4 4 4 4 4 4 4 
4 4 4 4 4 4 4 4 4 
4 4 4 4 4 4 4 4 4 
4 4 4 4 4 4 4 4 4 
4 4 4 4 4 4 4 4 4 
4 4 4 4 4 4 4 4 4 
4 4 4 4 4 4 4 4 4 
4 4 4 4 4 4 4 4 4 
4 4 4 4 4 4 4 4 4 
4 4 4 4 4 4 4 4 4 
4 4 4 4 4 4 4 4 4 
4 4 4 4 4 4 4 4 4 
4 4 4 4 4 4 4 4 4 
4 4 4 4 4 4 4 4 4 
4 4 4 4 4 4 4 4 4 
4 4 4 4 4 4 4 4 4 
4 4 4 4 4 4 4 4 4 
4 4 4 4 4 4 4 4 4 
4 4 4 4 4 4 4 4 4 
4 4 4 4 4 4 4 4 4 
4 4 4 4 4 4 4 4 4 
4 4 4 4 4 4 4 4 4 
4 4 4 4 4 4 4 4 4 
4 4 4 4 4 4 4 4 4 
4 4 4 4 4 4 4 4 4 
4 4 4 4 4 4 4 4 4 
4 4 4 4 4 4 4 4 4 
4 4 4 4 4 4 4 4 4 
4 4 4 4 4 4 4 4 4 
4 4 4 4 4 4 4 4 4 
4 4 4 4 4 4 4 4 4 
4 4 4 4 4 4 4 4 4 
4 4 4 4 4 4 4 4 4 
4 4 4 4 4 4 4 4 4 
4 4 4 4 4 4 4 4 4 
4 4 4 4 4 4 4 4 4 
4 4 4 4 4 4 4 4 4 
4 4 4 4 4 4 4 4 4 
4 4 4 4 4 4 4 4 4 
4 4 4 4 4 4 4 4 4 
4 4 4 4 4 4 4 4 4 
4 4 4 4 4 4 4 4 4 
4 4 4 4 4 4 4 4 4 
4 4 4 4 4 4 4 4 4 
4 4 4 4 4 4 4 4 4 
4 4 4 4 4 4 4 4 4 
4 4 4 4 4 4 4 4 4 
4 4 4 4 4 4 4 4 4 
4 4 4 4 4 4 4 4 4 
4 4 4 4 4 4 4 4 4 
4 4 4 4 4 4 4 4 4 
4 4 4 4 4 4 4 4 4 
4 4 4 4 4 4 4 4 4 
4 4 4 4 4 4 4 4 4 
4 4 4 4 4 4 4 4 4 
4 4 4 4 4 4 4 4 4 
4 4 4 4 4 4 4 4 4 
4 4 4 4 4 4 4 4 4 
4 4 4 4 4 4 4 4 4 
4 4 4 4 4 4 4 4 4 
4 4 4 4 4 4 4 4 4 
4 4 4 4 4 4 4 4 4 
4 4 4 4 4 4 4 4 4 
4 4 4 4 4 4 4 4 4 
4 4 4 4 4 4 4 4 4 
4 4 4 4 4 4 4 4 4 
4 4 4 4 4 4 4 4 4 
4 4 4 4 4 4 4 4 4 
4 4 4 4 4 4 4 4 4 
4 4 4 4 4 4 4 4 4 
4 4 4 4 4 4 4 4 4 
4 4 4 4 4 4 4 4 4 
4 4 4 4 4 4 4 4 4 
4 4 4 4 4 4 4 4 4 
4 4 4 4 4 4 4 4 4 
4 4 4 4 4 4 4 4 4 
4 4 4 4 4 4 4 4 4 
4 4 4 4 4 4 4 4 4 
4 4 4 4 4 4 4 4 4 
4 4 4 4 4 4 4 4 4 
4 4 4 4 4 4 4 4 4 
4 4 4 4 4 4 4 4 4 
4 4 4 4 4 4 4 4 4 
4 4 4 4 4 4 4 4 4 
4 4 4 4 4 4 4 4 4 
4 4 4 4 4 4 4 4 4 
4 4 4 4 5 5 5 5 5 
5 5 5 5 5 5 5 5 5 
5 5 5 5 5 5 5 5 5 
5 5 5 5 5 5 5 5 5 
5 5 5 5 5 5 5 5 5 
5 5 5 5 5 5 5 5 5 
5 5 5 5 5 5 5 5 5 
5 5 5 5 5 5 5 5 5 
5 5 5 5 5 5 5 5 5 
5 5 5 5 5 5 5 5 5 
5 5 5 5 5 5 5 5 5 
5 5 5 5 5 5 5 5 5 
5 5 5 5 5 5 5 5 5 
5 5 5 5 5 5 5 5 5 
5 5 5 5 5 5 5 5 5 
5 5 5 5 5 5 5 5 5 
5 5 5 5 5 5 5 5 5 
5 5 5 5 5 5 5 5 5 
5 5 5 5 5 5 5 5 5 
5 5 5 5 5 5 5 5 5 
5 5 5 5 5 5 5 5 5 
5 5 5 5 5 5 5 5 5 
5 5 5 5 5 5 5 5 5 
5 5 5 5 5 5 5 5 5 
5 5 5 5 5 5 5 5 5 
5 5 5 5 5 5 5 5 5 
5 5 5 5 5 5 5 5 5 
5 5 5 5 5 5 5 5 5 
5 5 5 5 5 5 5 5 5 
5 5 5 5 5 5 5 5 5 
5 5 5 5 5 5 5 5 5 
5 5 5 5 5 5 5 5 5 
5 5 5 5 5 5 5 5 5 
5 5 5 5 5 5 5 5 5 
5 5 5 5 5 5 5 5 5 
5 5 5 5 5 5 5 5 5 
5 5 5 5 5 5 5 5 5 
5 5 5 5 5 5 5 5 5 
5 5 5 5 5 5 5 5 5 
5 5 5 5 5 5 5 5 5 
5 5 5 5 5 5 5 5 5 
5 5 5 5 5 5 5 5 5 
5 5 5 5 5 5 5 5 5 
5 5 5 5 5 5 5 5 5 
5 5 5 5 5 5 5 5 5 
5 5 5 5 5 5 5 5 5 
5 5 5 5 5 5 5 5 5 
5 5 5 5 5 5 5 5 5 
5 5 5 5 5 5 5 5 5 
5 5 5 5 5 5 5 5 5 
5 5 5 5 5 5 5 5 5 
5 5 5 5 5 5 5 5 5 
5 5 5 5 5 5 5 5 5 
5 5 5 5 5 5 5 5 5 
5 5 5 5 5 5 5 5 5 
5 5 5 5 5 5 5 5 5 
5 5 5 5 5 5 5 5 5 
5 5 5 5 5 5 5 5 5 
5 5 5 5 5 5 5 5 5 
5 5 5 5 5 5 5 5 5 
5 5 5 5 5 5 5 5 5 
5 5 5 5 5 5 5 5 5 
5 5 5 5 5 5 5 5 5 
5 5 5 5 5 5 5 5 5 
5 5 5 5 5 5 5 5 5 
5 5 5 5 5 5 5 5 5 
5 5 5 5 5 5 5 5 5 
5 5 5 5 5 5 5 5 5 
5 5 5 5 5 5 5 5 5 
5 5 5 5 5 5 5 5 5 
5 5 5 5 5 5 5 5 5 
5 5 5 5 5 5 5 5 5 
5 5 5 5 5 5 5 5 5 
5 5 5 5 5 5 5 5 5 
5 5 5 5 5 5 5 5 5 
5 5 5 5 5 5 5 5 5 
5 5 5 5 5 5 5 5 5 
5 5 5 5 5 5 5 5 5 
5 5 5 5 5 5 5 5 5 
5 5 5 5 5 5 5 5 5 
5 5 5 5 5 5 5 5 5 
5 5 5 5 5 5 5 5 5 
5 5 5 5 5 5 5 5 5 
5 5 5 5 5 5 5 5 5 
5 5 5 5 5 5 5 5 5 
5 5 5 5 5 5 5 5 5 
5 5 5 5 5 5 5 5 5 
5 5 5 5 5 5 5 5 5 
5 5 5 5 5 5 5 5 5 
5 5 5 5 5 5 5 5 5 
5 5 5 5 5 5 5 5 5 
5 5 5 5 5 5 5 5 5 
5 5 5 5 5 5 5 5 5 
5 5 5 5 5 5 5 5 5 
5 5 5 5 5 5 5 5 5 
5 5 5 5 5 5 5 5 5 
5 5 5 5 5 5 5 5 5 
5 5 5 5 5 5 5 5 5 
5 5 5 5 5 5 5 5 5 
5 5 5 5 5 5 5 5 5 
5 5 5 5 5 5 5 5 5 
5 5 5 5 5 5 5 5 5 
5 5 5 5 5 5 5 5 5 
5 5 5 5 5 5 5 5 5 
5 5 5 5 5 5 5 5 5 
5 5 5 5 5 5 5 5 5 
5 5 5 5 5 5 5 5 5 
5 5 5 5 5 5 5 5 5 
5 5 5 5 5 5 5 5 5 
5 5 5 5 5 5 5 5 5 
5 5 5 5 5 5 5 5 5 
5 5 5 5 5 5 5 5 5 
5 5 5 5 5 5 5 5 5 
5 5 5 5 5 5 5 5 5 
5 5 5 5 5 5 5 5 5 
5 5 5 5 5 5 5 5 5 
5 5 5 5 5 5 5 5 5 
5 5 5 5 5 5 5 5 5 
5 5 5 5 5 5 5 5 5 
5 5 5 5 5 5 5 5 5 
5 5 5 5 5 5 5 5 5 
5 5 5 5 5 5 5 5 5 
5 5 5 5 5 5 5 5 5 
5 5 5 5 5 5 5 5 5 
5 5 5 5 5 5 5 5 5 
5 5 5 5 5 5 5 5 5 
5 5 5 5 5 5 5 5 5 
5 5 5 5 5 5 5 5 5 
5 5 5 5 5 5 5 5 5 
5 5 5 5 5 5 5 5 5 
5 5 5 5 5 5 5 5 5 
5 5 5 5 5 5 5 5 5 
5 5 5 5 5 5 5 5 5 
5 5 5 5 5 5 5 5 5 
5 5 5 5 5 5 5 5 5 
5 5 5 5 5 5 5 5 5 
5 5 5 5 5 5 5 5 5 
5 5 5 5 5 5 5 5 5 
5 5 5 5 5 5 5 5 5 
5 5 5 5 5 5 5 5 5 
5 5 5 5 5 5 5 5 5 
5 5 5 5 5 5 5 5 5 
5 5 5 5 5 5 5 5 5 
5 5 5 5 5 5 5 5 5 
5 5 5 5 5 5 5 5 5 
5 5 5 5 5 5 5 5 5 
5 5 5 5 5 5 5 5 5 
5 5 5 5 5 5 5 5 5 
5 5 5 5 5 5 5 5 5 
5 5 5 5 5 5 5 5 5 
5 5 5 5 5 5 5 5 5 
5 5 5 5 5 5 5 5 5 
5 5 5 5 5 5 5 5 5 
5 5 5 5 5 5 5 5 5 
5 5 5 5 5 5 5 5 5 
5 5 5 5 5 5 5 5 5 
5 5 5 5 5 5 5 5 5 
5 5 5 5 5 5 5 5 5 
5 5 5 5 5 5 5 5 5 
5 5 5 5 5 5 5 5 5 
5 5 5 5 5 5 5 5 5 
5 5 5 5 5 5 5 5 5 
5 5 5 5 5 5 5 5 5 
5 5 5 5 5 5 5 5 5 
5 5 5 5 5 5 5 5 5 
5 5 5 5 5 5 5 5 5 
5 5 5 5 5 5 5 5 5 
5 5 5 5 5 5 5 5 5 
5 5 5 5 5 5 5 5 5 
5 5 5 5 5 5 5 5 5 
5 5 5 5 5 5 5 5 5 
5 5 5 5 5 5 5 5 5 
5 5 5 5 5 5 5 5 5 
5 5 5 5 5 5 5 5 5 
5 5 5 5 5 5 5 5 5 
5 5 5 5 5 5 5 5 5 
5 5 5 5 5 5 5 5 5 
5 5 5 5 5 5 5 5 5 
5 5 5 5 5 5 5 5 5 
5 5 5 5 5 5 5 5 5 
5 5 5 5 5 5 5 5 5 
5 5 5 5 5 5 5 5 5 
5 5 5 5 5 5 5 5 5 
5 5 5 5 5 5 5 5 5 
5 5 5 5 5 5 5 5 5 
5 5 5 5 5 5 5 5 5 
5 5 5 5 5 5 5 5 5 
5 5 5 5 5 5 5 5 5 
5 5 5 5 5 5 5 5 5 
5 5 5 5 5 5 5 5 5 
5 5 5 5 5 5 5 5 5 
5 5 5 5 5 5 5 5 5 
5 5 5 5 5 5 5 5 5 
5 5 5 5 5 5 5 5 5 
5 5 5 5 5 5 5 5 5 
5 5 5 5 5 5 5 5 5 
5 5 5 5 5 5 5 5 5 
5 5 5 5 5 5 5 5 5 
5 5 5 5 5 5 5 5 5 
5 5 5 5 5 5 5 5 5 
5 5 5 5 5 5 5 5 5 
5 5 5 5 5 5 5 5 5 
5 5 5 5 5 5 5 5 5 
5 5 5 5 5 5 5 5 5 
5 5 5 5 5 5 5 5 5 
5 5 5 5 5 5 5 5 5 
5 5 5 5 5 5 5 5 5 
5 5 5 5 5 5 5 5 5 
5 5 5 5 5 5 5 5 5 
5 5 5 5 5 5 5 5 5 
5 5 5 5 5 5 5 5 5 
5 5 5 5 5 5 5 5 5 
5 5 5 5 5 5 5 5 5 
5 5 5 5 5 5 5 5 5 
5 5 5 5 5 5 5 5 5 
5 5 5 5 5 5 5 5 5 
5 5 5 5 5 5 5 5 5 
5 5 5 5 5 5 5 5 5 
5 5 5 5 5 5 5 5 5 
5 5 5 5 5 5 5 5 5 
5 5 5 5 5 5 5 5 5 
5 5 5 5 5 5 5 5 5 
5 5 5 5 5 5 5 5 5 
5 5 5 5 5 5 5 5 5 
5 5 5 5 5 5 5 5 5 
5 5 5 5 5 5 5 5 5 
5 5 5 5 5 5 5 5 5 
5 5 5 5 5 5 5 5 5 
5 5 5 5 5 5 5 5 5 
5 5 5 5 5 5 5 5 5 
5 5 5 5 5 5 5 5 5 
5 5 5 5 5 5 5 5 5 
5 5 5 5 5 5 5 5 5 
5 5 5 5 5 5 5 5 5 
5 5 5 5 5 5 5 5 5 
5 5 5 5 5 5 5 5 5 
5 5 5 5 5 5 5 5 5 
5 5 5 5 5 5 5 5 5 
5 5 5 5 5 5 5 5 5 
5 5 5 5 5 5 5 5 5 
5 5 5 5 5 5 5 5 5 
5 5 5 5 5 5 5 5 5 
5 5 5 5 5 5 5 5 5 
5 5 5 5 5 5 5 5 5 
5 5 5 5 5 5 5 5 5 
5 5 5 5 5 5 5 5 5 
5 5 5 5 5 5 5 5 5 
5 5 5 5 5 5 5 5 5 
5 5 5 5 5 5 5 5 5 
5 5 5 5 5 5 5 5 5 

METADATA
INFORMATION 1
NAME DISCRETE_VALUE_SAMPLE_PARAMETERS LOCATION vtkAbstractArray
DATA 2 0 0 

NORMALS normals float
0.693458 -0.420913 0.584764 0.723484 -0.476854 0.499179 0.758798 -0.347629 0.550799 
0.68574 -0.712821 -0.14713 0.465659 0.689862 0.554304 0.671177 -0.716422 -0.190422 
0.868844 0.493047 -0.0448954 0.550078 -0.572699 -0.607808 0.610995 0.322584 -0.722928 
0.548272 -0.517385 -0.657047 0.471035 0.039799 -0.881216 0.478138 -0.0339627 -0.877628 
0.461467 -0.00123993 -0.887156 0.464084 -0.647975 -0.603949 0.322866 0.0977696 -0.941381 
0.292711 -0.0775757 -0.953049 0.480065 -0.691564 -0.539701 0.326471 -0.242086 -0.91368 
0.516462 -0.781665 -0.349667 0.411807 -0.754595 -0.510882 0.422908 -0.512087 -0.747606 
0.272161 -0.841029 -0.467546 0.285672 -0.707113 -0.646825 0.00974775 -0.588489 -0.808446 
-0.117807 -0.40656 -0.905997 -0.114292 -0.444807 -0.888304 -0.140938 -0.375326 -0.916115 
-0.27894 -0.066803 -0.957982 -0.189342 0.209293 -0.959347 -0.234174 0.116127 -0.965234 
-0.040952 0.450925 -0.891622 -0.228334 0.129921 -0.964875 -0.062602 0.42791 -0.901651 
-0.104418 0.387443 -0.915961 0.0400061 0.430294 -0.901802 -0.0762719 0.514667 -0.853991 
0.0621325 0.50188 -0.862703 -0.0937635 0.560658 -0.822721 0.0206829 0.540264 -0.841241 
-0.0968205 0.619678 -0.778861 -0.0492089 0.654488 -0.754469 -0.0754095 0.53183 -0.843487 
0.0800053 0.711354 -0.698266 -0.0467089 0.459713 -0.886838 0.170303 0.484134 -0.85826 
0.159246 0.362322 -0.918348 0.201475 0.481107 -0.853196 0.0618386 0.472603 -0.879103 
0.291606 0.649524 -0.7022 0.159882 0.61779 -0.769917 0.193957 0.676421 -0.710518 
0.0360299 0.652316 -0.757091 0.101527 0.768622 -0.631595 0.0622218 0.712811 -0.698591 
0.130669 0.80036 -0.585106 0.0809139 0.795723 -0.600231 0.0898876 0.824873 -0.558126 
0.0628594 0.797477 -0.600066 0.150308 0.87463 -0.460901 0.0694362 0.805147 -0.588997 
0.0698354 0.779536 -0.622452 0.0528444 0.760858 -0.646763 0.0478778 0.7481 -0.661856 
-0.0383296 0.701398 -0.711738 -0.000737531 0.6796 -0.733582 -0.0797999 0.641381 -0.763062 
-0.0806219 0.599274 -0.796474 -0.163898 0.520296 -0.838111 -0.21001 0.604144 -0.768704 
-0.212839 0.602585 -0.76915 -0.213753 0.605605 -0.76652 -0.373621 0.560462 -0.739114 
-0.55106 0.740721 -0.384274 -0.599224 0.772166 -0.211402 -0.681791 0.696397 0.224037 
-0.682291 0.676727 0.276621 -0.63143 0.69502 0.343865 -0.597535 0.721122 0.350621 
-0.629104 0.703523 0.33058 -0.600472 0.722355 0.342982 -0.672703 0.678754 0.294557 
-0.592316 0.716624 0.368256 -0.597843 0.714594 0.363235 -0.601462 0.703559 0.378481 
-0.623922 0.681283 0.382852 -0.626949 0.682063 0.376465 -0.791373 0.404131 0.458701 
-0.883028 0.367278 0.292178 -0.909786 -0.409063 0.0704046 -0.729911 -0.584428 -0.354507 
-0.511679 -0.838539 0.187185 -0.488373 -0.817155 -0.306185 -0.428452 -0.874549 -0.22714 
-0.447217 -0.822901 -0.350473 -0.427285 -0.848148 -0.313166 -0.445072 -0.790332 -0.421053 
-0.444796 -0.782041 -0.436541 -0.441643 -0.727006 -0.52575 -0.43072 -0.770775 -0.469453 
-0.426559 -0.738794 -0.521757 -0.421051 -0.777814 -0.466606 -0.376586 -0.789272 -0.485009 
-0.342482 -0.831654 -0.437101 -0.338658 -0.813524 -0.472747 -0.21267 -0.967621 -0.135946 
-0.284425 -0.87904 -0.38261 -0.253075 -0.929091 -0.26971 -0.278414 -0.891056 -0.358477 
-0.269083 -0.912225 -0.308934 -0.327932 -0.84407 -0.424271 -0.507486 -0.855886 -0.0995852 
-0.489695 -0.707314 -0.50981 -0.802149 -0.595765 -0.0402634 -0.872087 -0.440326 -0.21349 
-0.827826 -0.560806 0.0141891 -0.881389 -0.365504 -0.299265 -0.866292 -0.485513 -0.117538 
-0.865646 -0.33515 -0.37193 -0.695596 -0.167753 -0.698574 -0.554012 0.118812 -0.823987 
-0.520592 0.163994 -0.837908 -0.525992 0.155008 -0.836244 -0.451646 0.226585 -0.862946 
-0.612627 -0.311655 -0.726333 -0.320809 -0.252115 -0.912973 -0.436618 -0.332072 -0.836118 
-0.335838 -0.358352 -0.87109 -0.525471 -0.562656 -0.6382 -0.411266 -0.674576 -0.613031 
-0.329515 -0.706445 -0.626383 -0.297089 -0.808699 -0.507685 -0.355322 -0.683511 -0.63762 
-0.358181 -0.713489 -0.602196 -0.38189 -0.667066 -0.639674 -0.444539 -0.623869 -0.642784 
-0.433603 -0.466792 -0.770774 -0.429594 -0.405985 -0.806614 -0.412563 -0.366381 -0.834 
-0.377451 -0.228338 -0.897437 -0.333414 -0.177925 -0.925839 -0.296207 0.118507 -0.947744 
-0.241795 0.0985999 -0.965305 -0.235236 0.116176 -0.96497 -0.234174 0.116127 -0.965234 
-0.228984 0.131132 -0.964557 -0.0845729 0.434002 -0.896933 -0.0976434 0.428002 -0.898488 
-0.0595336 0.518343 -0.853098 0.00745069 0.639699 -0.76859 0.0188 0.634125 -0.773002 
0.681624 -0.55588 0.4758 0.333627 -0.910356 0.244837 0.315094 -0.936529 -0.153721 
0.331987 -0.913027 -0.236994 0.475048 -0.724165 -0.499914 0.372147 -0.872721 -0.316013 
0.466528 -0.658786 -0.590214 0.467523 -0.67043 -0.576147 0.352458 -0.488478 -0.798224 
0.470368 -0.780278 -0.412214 0.335461 -0.859493 -0.385665 0.345449 -0.865433 -0.362892 
0.33641 -0.868499 -0.364056 0.326008 -0.935181 0.138398 -0.0097495 -0.749088 -0.662398 
0.00300035 -0.890478 -0.455017 -0.30466 -0.637687 -0.707487 0.067627 -0.9961 -0.0566764 
-0.318561 -0.789877 -0.524035 0.0874293 -0.880889 0.465179 -0.380448 -0.855496 0.351265 
0.0566591 -0.830267 0.554478 -0.3672 -0.680585 0.63401 -0.357376 -0.655234 0.665545 
-0.556108 -0.801744 0.218976 -0.507956 -0.65649 0.557675 -0.440143 -0.789208 0.428282 
-0.408467 -0.656917 0.633731 -0.696442 -0.643389 0.317836 -0.445209 -0.655715 0.609776 
-0.628951 -0.637802 0.444555 -0.56613 -0.631591 0.529708 -0.830311 -0.55592 -0.0391936 
-0.787913 -0.502636 0.355739 -0.808072 -0.48112 0.339915 -0.774645 -0.49078 0.398824 
-0.576684 -0.81188 0.0910271 -0.624915 -0.537859 0.565852 -0.364565 -0.707322 0.60563 
-0.524466 -0.463373 0.714297 -0.454103 -0.443684 0.772616 -0.478499 -0.541542 0.69121 
-0.477351 -0.440681 0.760221 -0.542009 -0.436382 0.71819 -0.573284 -0.35794 0.737037 
-0.348252 -0.444151 0.8255 -0.392396 -0.408014 0.824348 -0.345903 -0.404421 0.846637 
-0.472357 -0.231291 0.850519 -0.398507 -0.160639 0.902988 -0.290733 -0.471458 0.832587 
-0.210343 -0.556932 0.803482 -0.243391 -0.568737 0.785684 -0.174286 -0.632842 0.754411 
-0.0193671 -0.785365 0.61873 0.0232856 -0.756038 0.654114 0.0607294 -0.790657 0.60924 
0.0770817 -0.758518 0.647077 0.0863943 -0.75872 0.645662 0.132165 -0.695144 0.706617 
0.0863943 -0.75872 0.645662 0.132165 -0.695144 0.706617 0.0863943 -0.75872 0.645662 
0.0863943 -0.75872 0.645662 0.0607294 -0.790657 0.60924 0.0863943 -0.75872 0.645662 
0.0365209 -0.790213 0.611743 0.0753529 -0.758473 0.647334 0.0723893 -0.75839 0.647768 
0.127064 -0.690842 0.711752 0.0558122 -0.778727 0.624875 0.0993901 -0.637754 0.763801 
0.0505308 -0.777339 0.627049 -0.0966604 -0.70432 0.703271 -0.14663 -0.715641 0.682904 
-0.147377 -0.678429 0.719732 -0.39106 -0.508139 0.767377 -0.663155 0.0168893 0.748291 
-0.603516 -0.286522 0.744092 -0.653335 0.510513 0.559043 -0.744986 0.177599 0.643004 
-0.685403 0.619065 0.383383 0.368154 0.723794 0.583596 0.418734 0.747092 0.516251 
0.541366 0.839245 -0.0508934 0.508553 0.842109 -0.179518 0.446764 0.675151 -0.587003 
0.648646 0.588029 -0.483198 0.449265 0.565845 -0.691361 0.649439 0.337328 -0.681498 
0.526819 0.216751 -0.821876 0.733319 0.124641 -0.668362 0.591994 -0.708579 -0.384004 
0.608694 0.347045 -0.713479 0.603809 0.347837 -0.717233 0.207522 0.317196 0.925376 
0.318436 0.183654 0.929983 0.243093 0.425854 0.871524 0.297363 0.589137 0.751327 
0.608285 0.66475 0.433702 0.901907 0.424316 0.0807422 0.707777 0.565698 -0.423128 
0.712369 0.528081 -0.462235 0.723106 0.535644 -0.436122 0.785814 0.591259 -0.181408 
0.781952 0.560432 -0.272887 0.808045 0.551804 -0.206338 0.879477 0.430804 -0.202308 
0.73277 0.44655 -0.51346 0.751927 0.329451 -0.571024 0.601758 0.508816 -0.615625 
0.196864 0.646899 -0.736727 0.225686 0.673799 -0.703606 0.131754 0.609069 -0.782097 
0.0784038 0.542245 -0.836554 0.0549368 0.555561 -0.829659 -0.0107289 0.456749 -0.889531 
-0.00147963 0.532102 -0.846679 0.274934 -0.616075 0.738148 0.254324 -0.545004 0.79893 
0.257035 -0.648875 0.716167 0.272915 -0.93629 0.221085 0.298355 -0.943665 -0.14311 
0.354907 -0.929806 -0.0974796 0.392573 -0.905867 -0.159035 0.403697 -0.905956 -0.127564 
0.0595902 0.545969 0.835684 0.166223 0.526511 0.83376 0.322733 0.0230831 0.946209 
0.0342723 0.036006 0.998764 0.052188 0.318295 0.946554 -0.0793352 0.254831 0.963726 
0.13234 -0.194233 0.971987 -0.0991101 -0.408743 0.907252 -0.115373 -0.223196 0.967922 
-0.0807435 -0.65716 0.749414 -0.123237 -0.548598 0.826954 -0.3711 -0.53254 0.760714 
-0.299487 -0.665587 0.683595 -0.450088 -0.686827 0.570691 -0.315682 -0.672195 0.6697 
-0.422977 -0.640842 0.640634 -0.322627 -0.665646 0.672925 0.107228 -0.826583 0.552505 
0.193797 -0.957515 0.21356 0.284237 -0.957662 -0.0457347 0.0867605 -0.788476 0.608915 
0.0863036 -0.831097 0.549389 -0.00326175 -0.780576 0.625052 0.110708 -0.880624 0.460701 