# vtk DataFile Version 5.1
vtk output
ASCII
DATASET UNSTRUCTURED_GRID
POINTS 5256 float
23.6082 1.6929 31.1355 23.5575 1.6158 31.1332 23.6014 1.6158 31.2158 
23.6082 1.181 31.1355 24.054 1.6158 31.6968 23.6125 1.147 31.1355 
23.777 1.147 31.683 24.1179 0.678199 31.1607 24.2762 0.678199 31.6956 
24.3212 0.5445 31.1699 25.0292 0.2094 31.264 24.964 0.2094 31.2009 
25.0343 0.176099 31.2043 25.0802 0.1931 30.6671 25.7473 0.0769002 31.2388 
25.7933 -0.0219997 30.7015 26.4603 -0.0980991 31.2732 26.5063 -0.0494006 30.7371 
26.6101 -0.2594 31.2812 26.8901 -0.2594 30.7555 26.964 -0.728199 31.2985 
27.2194 -0.6069 30.7716 27.2042 -0.728199 30.9484 27.6633 -0.728199 30.7922 
27.9324 -0.7615 30.806 27.9372 -0.728199 30.7498 28.0155 -0.728199 30.8095 
28.6454 -0.4938 30.8404 28.5995 -0.5213 31.3777 29.3125 -0.266699 31.4121 
28.5535 -0.358 31.9137 29.3102 -0.2594 31.4385 28.8567 -0.2594 31.9287 
29.2666 -0.131199 31.9493 28.5075 -0.0739997 32.451 29.2206 0.0927007 32.4854 
28.4616 0.1429 32.9882 29.2037 0.2094 32.6828 28.6385 0.2094 32.9974 
29.1746 0.4438 33.0226 29.1495 0.678199 33.3165 29.6496 0.678199 33.0456 
29.1287 0.8962 33.5599 29.8877 0.775301 33.0571 29.8417 0.9965 33.5943 
30.5547 1.0064 33.6287 30.5357 1.147 33.8514 31.2567 1.147 33.7929 
30.5088 1.4111 34.166 31.2218 1.4256 34.2004 31.2045 1.6158 34.4024 
31.9296 1.6158 34.2968 31.8985 2.0846 34.6595 32.6257 2.0846 34.5287 
31.8889 2.243 34.7721 32.6019 2.4346 34.8065 32.5941 2.5534 34.8972 
32.9272 2.5534 34.8226 33.2987 3.0222 35.0303 33.315 2.7118 34.8409 
34.0215 3.0222 34.9523 34.028 2.9314 34.8754 34.2662 3.0222 34.8869 
34.0577 2.5534 34.5287 34.7559 3.0222 34.7365 34.4305 2.5534 34.3554 
34.787 2.719 34.3737 34.8115 2.5534 34.0868 35.4937 3.0222 34.407 
35.5006 3.0222 34.4013 35.5 3.0268 34.4082 35.8502 3.0222 33.8859 
35.8152 3.491 34.4231 36.0074 3.491 33.8927 35.7139 3.9598 34.4185 
35.828 3.9598 33.8847 35.546 4.2957 33.8709 35.569 4.4286 33.6023 
35.425 4.4286 33.8652 35.592 4.5692 33.3337 35.3403 4.8974 33.3211 
35.6379 4.7645 32.7965 35.5169 4.8974 32.7908 35.6609 4.8974 32.5279 
35.6839 5.0303 32.2593 35.8049 4.8974 32.265 35.7299 5.1397 31.722 
35.9282 4.8974 31.7324 35.7634 4.8974 31.3318 35.7563 4.4286 31.4133 
35.4603 4.8974 31.1699 35.2981 4.4286 31.1619 35.0706 4.4286 31.0597 
35.0628 4.2491 31.1515 34.3604 3.9598 30.992 34.6837 3.9598 31.1332 
34.3498 3.7402 31.116 34.3372 3.491 31.2629 33.9707 3.491 31.0976 
33.6242 3.0222 31.2284 33.6367 3.2714 31.0815 33.1968 3.0222 31.0608 
32.9315 3.0222 30.9564 32.9237 2.8893 31.0471 32.2244 3.0222 30.8519 
32.2106 2.7142 31.0126 31.5023 2.5534 30.9231 31.7596 2.5534 30.9908 
31.4976 2.4658 30.9782 31.4794 2.0846 31.1906 30.778 2.0846 31.0195 
31.4631 1.6158 31.3811 30.7793 1.6158 31.0057 30.7845 1.2981 30.9437 
30.7026 1.6158 30.9403 30.7879 1.147 30.9047 30.3856 1.147 30.3847 
30.7845 1.0784 30.9437 30.5896 0.678199 30.9346 30.7453 0.678199 31.4018 
30.7386 0.644399 31.481 30.7767 0.678199 31.4821 30.7238 0.678199 31.6543 
31.2065 1.147 31.5039 31.4057 1.0303 32.0526 31.4259 1.147 31.8162 
31.699 1.147 32.0664 31.4516 1.4093 31.5154 31.7856 1.6158 31.5315 
32.1647 1.7983 31.5499 32.1828 2.0846 31.3375 32.8777 1.9978 31.5843 
32.8842 2.0846 31.5085 33.0546 2.0846 31.5935 33.5908 2.3814 31.6187 
33.5645 2.0846 31.9252 33.8505 2.0846 32.1709 33.5448 1.919 32.1559 
34.2119 1.9989 32.7276 33.4988 1.7144 32.6932 34.1659 1.8988 33.2648 
33.4559 1.6158 33.1948 33.4694 1.6158 33.2304 33.4529 1.6085 33.2304 
33.4506 1.6158 33.2568 32.6938 1.4876 33.732 33.0504 1.6158 33.7493 
32.6745 1.6158 33.9582 32.6479 1.8251 34.2693 32.0826 1.6158 34.2417 
23.6139 1.6158 31.0677 24.0107 1.6158 30.6155 24.1639 1.147 30.6235 
24.3672 0.9428 30.6327 24.3413 0.678199 30.9357 24.6191 0.678199 30.6453 
25.0564 0.2094 30.666 25.0828 0.2094 30.6373 25.8393 -0.0420993 30.1655 
25.488 0.2094 30.1483 25.8852 0.187299 29.6282 25.8576 0.2094 29.6271 
25.8875 0.2094 29.6007 25.9053 0.678199 29.3929 26.6327 0.2094 29.2598 
26.6442 0.354601 29.1255 27.3573 0.4829 29.1599 26.662 0.678199 28.9177 
27.3787 0.678199 28.9097 26.6573 1.147 28.9728 27.3841 1.147 28.8465 
26.6442 1.3512 29.1255 27.3573 1.5328 29.1599 27.3517 1.6158 29.2242 
28.0611 1.147 29.3011 28.0363 1.6158 29.5927 28.7713 1.147 29.37 
28.7421 1.6158 29.7109 29.4647 1.147 29.6328 28.9241 1.6158 29.7752 
29.4504 1.3962 29.8004 29.439 1.6158 29.9347 30.1361 1.147 30.154 
30.1228 1.6158 30.3101 30.1994 1.6158 30.3767 30.1175 1.7003 30.3721 
30.5816 2.0846 30.9334 30.0915 2.0846 30.6763 30.0715 2.3605 30.9093 
29.4044 2.1385 30.3377 29.3585 2.4817 30.8749 28.6914 2.3461 30.3032 
29.1816 2.5534 30.8657 28.6706 2.5534 30.5466 28.6454 2.7878 30.8404 
27.9386 3.0222 30.7337 28.0757 3.0222 30.8129 27.9324 3.0746 30.806 
28.6148 3.0222 31.1975 28.5995 3.1193 31.3777 29.1051 3.0222 31.4018 
29.3065 3.0222 31.4821 29.3125 2.9695 31.4121 29.4992 3.0222 31.4213 
30.037 3.0222 31.3122 30.0256 3.1942 31.4465 30.75 3.491 31.3467 
30.477 3.491 31.4684 30.7386 3.663 31.481 30.7147 3.9598 31.7599 
31.1901 3.9598 31.5028 31.4277 4.4286 31.7944 31.4516 4.1318 31.5154 
31.9031 4.4286 31.5372 32.1761 4.4286 31.4167 32.1647 4.6006 31.5499 
32.8892 4.8974 31.4511 32.6161 4.8974 31.5717 32.8777 5.0694 31.5843 
32.8538 5.3662 31.8644 33.3527 5.3662 31.6072 33.5645 5.835 31.9252 
33.5908 5.5227 31.6187 34.1605 5.835 31.6463 34.3089 5.835 31.5935 
34.3038 5.8979 31.6532 34.716 5.835 31.6738 35.0004 5.835 31.8805 
35.0168 5.7692 31.6876 35.072 5.835 32.2294 35.4667 5.3662 31.7094 
35.4019 5.3662 32.2455 24.2753 1.7291 31.7071 24.2672 1.6158 31.8013 
24.2571 1.147 31.9183 24.961 1.147 32.0607 24.9751 0.678199 31.8954 
25.6746 0.678199 32.0894 24.9883 0.512001 31.7416 25.7014 0.328199 31.776 
25.719 0.2094 31.5705 25.8647 0.2094 31.784 26.4411 -0.2594 31.4982 
24.2753 0.6835 31.7071 24.2876 0.678199 31.7071 24.3212 2.1948 31.1699 
24.0377 2.0846 31.1561 24.3077 2.0846 31.3272 24.9883 1.8824 31.7416 
24.9622 1.6158 32.0469 25.2498 1.6158 32.2937 25.5751 1.147 32.3098 
25.6506 1.147 32.3683 25.6554 1.0827 32.3132 26.3463 0.678199 32.6059 
25.9797 0.678199 32.3293 26.356 0.2094 32.4923 26.1693 0.2094 32.3385 
26.3684 -0.198799 32.3477 26.3744 -0.2594 32.2776 26.4981 -0.2594 32.3534 
27.0815 -0.362299 32.3821 27.0731 -0.2594 32.4808 27.438 -0.2594 32.3993 
27.7945 -0.173701 32.4165 27.805 -0.2594 32.2937 28.5388 -0.2594 32.0859 
27.8405 -0.5518 31.8793 24.2408 2.0846 30.6269 24.3672 2.1671 30.6327 
24.3757 2.0846 30.534 24.3902 1.6158 30.3641 24.3803 1.147 30.48 
25.1262 0.848301 30.131 25.1173 0.678199 30.2343 25.2273 0.678199 30.1356 
25.0343 2.2704 31.2043 25.009 2.0846 31.4993 25.4999 2.0846 31.7668 
25.0802 2.4328 30.6671 25.7473 2.2519 31.2388 25.7933 2.408 30.7015 
26.5063 2.4276 30.7371 25.8393 2.3674 30.1655 26.5523 2.3711 30.1999 
26.5982 2.1009 29.6627 27.2653 2.4613 30.2343 27.3113 2.1221 29.6971 
27.9229 2.5534 30.2665 28.0075 2.0846 29.929 27.9791 2.5534 30.2596 
28.7113 2.0846 30.0713 28.0068 2.5534 30.2699 25.0209 2.0846 30.1253 
24.8148 1.6158 30.115 24.9228 1.147 30.1207 25.1262 2.1632 30.131 
25.1313 2.0846 30.0702 25.8627 2.0846 29.8911 25.8787 1.6158 29.704 
26.0233 1.6158 29.6351 25.8852 1.4457 29.6282 25.8983 1.147 29.4744 
25.6819 1.147 29.6179 25.6413 0.678199 29.6156 25.1419 1.6158 29.9462 
25.1393 1.147 29.9772 25.6094 2.1203 32.8505 25.5477 2.0846 32.847 
25.607 2.0846 32.8791 25.6094 1.8257 32.8505 26.3178 1.6158 32.9388 
25.8115 1.6158 32.8596 26.3225 1.4655 32.8849 26.3335 1.147 32.7552 
26.5398 1.147 32.8952 26.7702 0.678199 32.9067 27.0469 0.2094 32.785 
27.0355 0.428899 32.9193 27.4538 0.2094 32.94 27.7384 0.2094 33.072 
27.7485 0.123701 32.9538 28.4531 0.2094 33.0881 25.3551 2.0846 32.2983 
25.6131 1.6158 32.8068 25.6554 2.3875 32.3132 25.7014 2.1923 31.776 
26.3225 2.3041 32.8849 26.3118 2.0846 33.0089 27.0125 1.6158 33.1879 
27.0125 1.147 33.1879 27.5219 1.6158 33.4818 27.4078 1.147 33.4761 
27.6888 1.147 33.6517 27.6993 0.678199 33.5289 28.4091 0.678199 33.6012 
27.7026 0.632 33.491 28.4156 0.5914 33.5254 28.6186 0.678199 33.5346 
26.3684 2.8233 32.3477 25.8684 2.5534 32.3236 26.3394 2.5534 32.6863 
27.0355 2.5348 32.9193 27.0169 2.0846 33.1363 27.7176 2.0846 33.3154 
27.7026 1.781 33.491 28.0787 2.0846 33.5093 27.6948 1.6158 33.5817 
28.4017 2.0846 33.6884 28.3926 1.6158 33.794 29.0933 1.6158 33.972 
29.1113 1.147 33.7619 29.8243 1.147 33.7975 26.0448 2.5534 31.7932 
26.4537 2.5534 31.2732 26.4614 2.5534 31.2617 26.7252 2.5534 30.7475 
27.2537 2.5534 30.3698 27.2194 2.9893 30.7716 27.4084 3.0222 30.7808 
27.2162 3.0222 30.8072 27.1734 3.261 31.3076 26.6288 3.0222 31.2812 
26.4144 3.064 31.8104 26.4278 3.0222 31.6543 26.3595 3.0222 31.8081 
26.407 3.0222 31.8965 26.8406 3.0222 32.3706 27.072 3.0222 32.4934 
27.0365 2.5534 32.9078 27.7493 2.5534 32.9446 27.7485 2.5432 32.9538 
27.7746 2.5534 32.9549 28.4156 2.3061 33.5254 28.6675 2.5534 33.538 
29.0976 2.5534 33.9226 28.9984 3.0222 33.5541 29.1186 3.0222 33.6781 
29.1287 3.1581 33.5599 29.6393 3.0222 34.1235 29.4852 3.491 33.5771 
29.7957 3.1769 34.1315 29.8166 3.491 33.8882 30.0983 3.491 34.1464 
30.0192 3.9598 33.6035 30.4268 3.9598 34.1625 30.4245 4.4286 33.623 
30.5088 4.0443 34.166 30.5421 4.4286 33.7768 30.9726 4.4286 34.1889 
30.5547 4.5315 33.6287 31.0644 4.8974 33.654 30.9572 4.8974 33.1087 
31.2678 5.0311 33.6632 31.3137 5.1318 33.1259 31.6702 5.3662 33.1432 
31.8694 5.3662 32.614 32.0268 5.6006 33.1615 32.0727 5.4999 32.6243 
32.6293 5.835 32.6507 32.0905 5.3662 32.4165 32.7991 5.835 32.5026 
32.4752 5.3662 32.1043 32.8317 5.591 32.1215 33.2391 5.835 32.141 
33.5448 6.0006 32.1559 26.2221 -0.2594 31.8013 26.4144 -0.4891 31.8104 
27.125 -0.728199 31.8736 27.0474 -0.728199 31.8414 27.1274 -0.745699 31.8449 
27.1734 -0.834099 31.3076 27.8864 -0.807801 31.3432 26.4603 2.568 31.2732 
26.5523 -0.0828002 30.1999 26.5982 0.00410049 29.6627 26.5582 2.0846 29.6604 
26.5998 2.0846 29.6443 26.628 1.6158 29.3149 26.4409 1.147 29.1151 
26.3328 0.678199 29.1105 27.0212 0.678199 33.0869 27.6323 0.678199 33.4875 
[...]
POINT_DATA 5256
SCALARS scalars unsigned_short
LOOKUP_TABLE default
3 3 3 3 3 3 3 3 3 
3 3 3 3 3 3 3 3 3 
3 3 3 3 3 3 3 3 3 
3 3 3 3 3 3 3 3 3 
3 3 3 3 3 3 3 3 3 
3 3 3 3 3 3 3 3 3 
3 3 3 3 3 3 3 3 3 
3 3 3 3 3 3 3 3 3 
3 3 3 3 3 3 3 3 3 
3 3 3 3 3 3 3 3 3 
3 3 3 3 3 3 3 3 3 
3 3 3 3 3 3 3 3 3 
3 3 3 3 3 3 3 3 3 
3 3 3 3 3 3 3 3 3 
3 3 3 3 3 3 3 3 3 
3 3 3 3 3 3 3 3 3 
3 3 3 3 3 3 3 3 3 
3 3 3 3 3 3 3 3 3 
3 3 3 3 3 3 3 3 3 
3 3 3 3 3 3 3 3 3 
3 3 3 3 3 3 3 3 3 
3 3 3 3 3 3 3 3 3 
3 3 3 3 3 3 3 3 3 
3 3 3 3 3 3 3 3 3 
3 3 3 3 3 3 3 3 3 
3 3 3 3 3 3 3 3 3 
3 3 3 3 3 3 3 3 3 
3 3 3 3 3 3 3 3 3 
3 3 3 3 3 3 3 3 3 
3 3 3 3 3 3 3 3 3 
3 3 3 3 3 3 3 3 3 
3 3 3 3 3 3 3 3 3 
3 3 3 3 3 3 3 3 3 
3 3 3 3 3 3 3 3 3 
3 3 3 3 3 3 3 3 3 
3 3 3 3 3 3 3 3 3 
3 3 3 3 3 3 3 3 3 
3 3 3 3 3 3 3 3 3 
3 3 3 3 3 3 3 3 3 
3 3 3 3 3 3 3 3 3 
3 3 3 3 3 3 3 3 3 
3 3 3 3 3 3 3 3 3 
3 3 3 3 3 3 3 3 3 
3 3 3 3 3 3 3 3 3 
3 3 3 3 3 3 3 3 3 
3 3 3 3 3 3 3 3 3 
3 3 3 3 3 3 3 3 3 
3 3 3 3 3 3 3 3 3 
3 3 3 3 3 3 3 3 3 
3 3 3 3 3 3 3 3 3 
3 3 3 3 3 3 3 3 3 
3 3 3 3 3 3 3 3 3 
3 3 3 3 3 3 3 3 3 
3 3 3 3 3 3 3 3 3 
3 3 3 3 3 3 3 3 3 
3 3 3 3 3 3 3 3 3 
3 3 3 3 3 3 3 3 3 
3 3 3 3 3 3 3 3 3 
3 3 3 3 3 3 3 3 3 
3 3 3 3 3 3 3 3 3 
3 3 3 3 3 3 3 3 3 
3 3 3 3 3 3 3 3 3 
3 3 3 3 3 3 3 3 3 
3 3 3 3 3 3 3 3 3 
3 3 3 3 3 3 3 3 3 
3 3 3 3 3 3 3 3 3 
3 3 3 3 3 3 3 3 3 
3 3 3 3 3 3 3 3 3 
3 3 3 3 3 3 3 3 3 
3 3 3 3 3 3 3 3 3 
3 3 3 3 3 3 3 3 3 
3 3 3 3 3 3 3 3 3 
3 3 3 3 3 3 3 3 3 
3 3 3 3 3 3 3 3 3 
3 3 3 3 3 3 3 3 3 
3 3 3 3 3 3 3 3 3 
3 3 3 3 3 3 3 3 3 
3 3 3 3 3 3 3 3 3 
3 3 3 3 3 3 3 3 3 
3 3 3 3 3 3 3 3 3 
3 3 3 3 3 3 3 3 3 
3 3 3 3 3 3 3 3 3 
3 3 3 3 3 3 3 3 3 
3 3 3 3 3 3 3 3 3 
3 3 3 3 3 3 3 3 3 
3 3 3 3 3 3 3 3 3 
3 3 3 3 3 3 4 4 4 
4 4 4 4 4 4 4 4 4 
4 4 4 4 4 4 4 4 4 
4 4 4 4 4 4 4 4 4 
4 4 4 4 4 4 4 4 4 
4 4 4 4 4 4 4 4 4 
4 4 4 4 4 4 4 4 4 
4 4 4 4 4 4 4 4 4 
4 4 4 4 4 4 4 4 4 
4 4 4 4 4 4 4 4 4 
4 4 4 4 4 4 4 4 4 
4 4 4 4 4 4 4 4 4 
4 4 4 4 4 4 4 4 4 
4 4 4 4 4 4 4 4 4 
4 4 4 4 4 4 4 4 4 
4 4 4 4 4 4 4 4 4 
4 4 4 4 4 4 4 4 4 
4 4 4 4 4 4 4 4 4 
4 4 4 4 4 4 4 4 4 
4 4 4 4 4 4 4 4 4 
4 4 4 4 4 4 4 4 4 
4 4 4 4 4 4 4 4 4 
4 4 4 4 4 4 4 4 4 
4 4 4 4 4 4 4 4 4 
4 4 4 4 4 4 4 4 4 
4 4 4 4 4 4 4 4 4 
4 4 4 4 4 4 4 4 4 
4 4 4 4 4 4 4 4 4 
4 4 4 4 4 4 4 4 4 
4 4 4 4 4 4 4 4 4 
4 4 4 4 4 4 4 4 4 
4 4 4 4 4 4 4 4 4 
4 4 4 4 4 4 4 4 4 
4 4 4 4 4 4 4 4 4 
4 4 4 4 4 4 4 4 4 
4 4 4 4 4 4 4 4 4 
4 4 4 4 4 4 4 4 4 
4 4 4 4 4 4 4 4 4 
4 4 4 4 4 4 4 4 4 
4 4 4 4 4 4 4 4 4 
4 4 4 4 4 4 4 4 4 
4 4 4 4 4 4 4 4 4 
4 4 4 4 4 4 4 4 4 
4 4 4 4 4 4 4 4 4 
4 4 4 4 4 4 4 4 4 
4 4 4 4 4 4 4 4 4 
4 4 4 4 4 4 4 4 4 
4 4 4 4 4 4 4 4 4 
4 4 4 4 4 4 4 4 4 
4 4 4 4 4 4 4 4 4 
4 4 4 4 4 4 4 4 4 
4 4 4 4 4 4 4 4 4 
4 4 4 4 4 4 4 4 4 
4 4 4 4 4 4 4 4 4 
4 4 4 4 4 4 4 4 4 
4 4 4 4 4 4 4 4 4 
4 4 4 4 4 4 4 4 4 
4 4 4 4 4 4 4 4 4 
4 4 4 4 4 4 4 4 4 
4 4 4 4 4 4 4 4 4 
4 4 4 4 4 4 4 4 4 
4 4 4 4 4 4 4 4 4 
4 4 4 4 4 4 4 4 4 
4 4 4 4 4 4 4 4 4 
4 4 4 4 4 4 4 4 4 
4 4 4 4 4 4 4 4 4 
4 4 4 4 4 4 4 4 4 
4 4 4 4 4 4 4 4 4 
4 4 4 4 4 4 4 4 4 
4 4 4 4 4 4 4 4 4 
4 4 4 4 4 4 4 4 4 
4 4 4 4 4 4 4 4 4 
4 4 4 4 4 4 4 4 4 
4 4 4 4 4 4 4 4 4 
4 4 4 4 4 4 4 4 4 
4 4 4 4 4 4 4 4 4 
4 4 4 4 4 4 4 4 4 
4 4 4 4 4 4 4 4 4 
4 4 4 4 4 4 4 4 4 
4 4 4 4 4 4 4 4 4 
4 4 4 4 4 4 4 4 4 
4 4 4 4 4 4 4 4 4 
4 4 4 4 4 4 4 4 4 
4 4 4 4 4 4 4 4 4 
4 4 4 4 4 4 4 4 4 
4 4 4 4 4 4 4 4 4 
4 4 4 4 4 4 4 4 4 
4 4 4 4 4 4 4 4 4 
4 4 4 4 4 4 4 4 4 
4 4 4 4 4 4 4 4 4 
4 4 4 4 4 4 4 4 4 
4 4 4 4 4 4 4 4 4 
4 4 4 4 4 4 4 4 4 
4 4 4 4 4 4 4 4 4 
4 4 4 4 4 4 4 4 4 
4 4 4 4 4 4 4 4 4 
4 4 4 4 4 4 4 4 4 
4 4 4 4 4 4 4 4 4 
4 4 4 4 4 4 4 4 4 
4 4 4 4 4 4 4 4 4 
4 4 4 4 4 4 4 4 4 
4 4 4 4 4 4 4 4 4 
4 4 4 4 4 4 4 4 4 
4 4 4 4 4 4 4 4 4 
4 4 4 4 4 4 4 4 4 
4 4 4 4 4 4 4 4 4 
4 4 4 4 4 4 4 4 4 
4 4 4 4 4 4 4 4 4 
4 4 4 4 4 4 4 4 4 
4 4 4 4 4 4 4 4 4 
4 4 4 4 4 4 4 4 4 
4 4 4 4 4 4 4 4 4 
4 4 4 4 4 4 4 4 4 
4 4 4 4 4 4 4 4 4 
4 4 4 4 4 4 4 4 4 
4 4 4 4 4 4 4 4 4 
4 4 4 4 4 4 4 4 4 
4 4 4 4 4 4 4 4 4 
4 4 4 4 4 4 4 4 4 
4 4 4 4 4 4 4 4 4 
4 4 4 4 4 4 4 4 4 
4 4 4 4 4 4 4 4 4 
4 4 4 4 4 4 4 4 4 
4 4 4 4 4 4 4 4 4 
4 4 4 4 4 4 4 4 4 
4 4 4 4 4 4 4 4 4 
4 4 4 4 4 4 4 4 4 
4 4 4 4 4 4 4 4 4 
4 4 4 4 4 4 4 4 4 
4 4 4 4 4 4 4 4 4 
4 4 4 4 4 4 4 4 4 
4 4 4 4 4 4 4 4 4 
4 4 4 4 4 4 4 4 4 
4 4 4 4 4 4 4 4 4 
4 4 4 4 4 4 4 4 4 
4 4 4 4 4 4 4 4 4 
4 4 4 4 4 4 4 4 4 
4 4 4 4 4 4 4 4 4 
4 4 4 4 4 4 4 4 4 
4 4 4 4 4 4 4 4 4 
4 4 4 4 4 4 4 4 4 
4 4 4 4 4 4 4 4 4 
4 4 4 4 4 4 4 4 4 
4 4 4 4 4 4 4 4 4 
4 4 4 4 4 4 4 4 4 
4 4 4 4 4 4 4 4 4 
4 4 4 4 4 4 4 4 4 
4 4 4 4 4 4 4 4 4 
4 4 4 4 4 4 4 4 4 
4 4 4 4 4 4 4 4 4 
4 4 4 4 4 4 4 4 4 
4 4 4 4 4 4 4 4 4 
4 4 4 4 4 4 4 4 4 
4 4 4 4 4 4 4 4 4 
4 4 4 4 4 4 4 4 4 
4 4 4 4 4 4 4 4 4 
4 4 4 4 4 4 4 4 4 
4 4 4 4 4 4 4 4 4 
4 4 4 4 4 4 4 4 4 
4 4 4 4 4 4 4 4 4 
4 4 4 4 4 4 4 4 4 
4 4 4 4 4 4 4 4 4 
4 4 4 4 4 4 4 4 4 
4 4 4 4 4 4 4 4 4 
4 4 4 4 4 4 4 4 4 
4 4 4 4 4 4 4 4 4 
4 4 4 4 4 4 4 4 4 
4 4 4 4 4 4 4 4 4 
4 4 4 4 4 4 4 4 4 
4 4 4 4 4 4 4 4 4 
4 4 4 4 4 4 4 4 4 
4 4 4 4 4 4 4 4 4 
4 4 4 4 4 4 4 4 4 
4 4 4 4 4 4 4 4 4 
4 4 4 4 4 4 4 4 4 
4 4 4 4 4 4 4 4 4 
4 4 4 4 4 4 4 4 4 
4 4 4 4 4 4 4 4 4 
4 4 4 4 4 4 4 4 4 
4 4 4 4 4 4 4 4 4 
4 4 4 4 4 4 4 4 4 
4 4 4 4 4 4 4 4 4 
4 4 4 4 4 4 4 4 4 
4 4 4 4 4 4 4 4 4 
4 4 4 4 4 4 4 4 4 
4 4 4 4 4 4 4 4 4 
4 4 4 4 4 4 4 4 4 
4 4 4 4 4 4 4 4 4 
4 4 4 4 4 4 4 4 4 
4 4 4 4 4 4 4 4 4 
4 4 4 4 4 4 4 4 4 
4 4 4 4 4 4 4 4 4 
4 4 4 4 4 4 4 4 4 
4 4 4 4 4 4 4 4 4 
4 4 4 4 4 4 4 4 4 
4 4 4 4 4 4 4 4 4 
4 4 4 4 4 4 4 4 4 
4 4 4 4 4 4 4 4 4 
4 4 4 4 4 4 4 4 4 
4 4 4 4 4 4 4 4 4 
4 4 4 4 4 4 4 4 4 
4 4 4 4 4 4 4 4 4 
4 4 4 4 4 4 4 4 4 
4 4 4 4 4 4 4 4 4 
4 4 4 4 4 4 4 4 4 
4 4 4 4 4 4 4 4 4 
4 4 4 4 4 4 4 4 4 
4 4 4 4 4 4 4 4 4 
4 4 4 4 4 4 4 4 4 
4 4 4 4 4 4 4 4 4 
4 4 4 4 4 4 4 4 4 
4 4 4 4 4 4 4 4 4 
4 4 4 4 4 4 4 4 4 
4 4 4 4 4 4 4 4 4 
4 4 4 4 4 4 4 4 4 
4 4 4 4 4 4 4 4 4 
4 4 4 4 4 4 4 4 4 
4 4 4 4 4 4 4 4 4 
4 4 4 4 4 4 4 4 4 
4 4 4 4 4 4 4 4 4 
4 4 4 4 4 4 4 4 4 
4 4 4 4 4 4 4 4 4 
4 4 4 4 4 4 4 4 4 
4 4 4 4 4 4 4 4 4 
4 4 4 4 4 4 4 4 4 
4 4 4 4 4 4 4 4 4 
4 4 4 4 4 4 4 4 4 
4 4 4 4 4 4 4 4 4 
4 4 4 4 4 4 4 4 4 
4 4 4 4 4 4 4 4 4 
4 4 4 4 4 4 4 4 4 
4 4 4 4 4 4 4 4 4 
4 4 4 4 4 4 4 4 4 
4 4 4 4 4 4 4 4 4 
4 4 4 4 4 4 4 4 4 
4 4 4 4 4 4 4 4 4 
4 4 4 4 4 4 4 4 4 
4 4 4 4 4 4 4 4 4 
4 4 4 4 4 4 4 4 4 
4 4 4 4 4 4 4 4 4 
4 4 4 4 4 4 4 4 4 
4 4 4 4 4 4 4 4 4 
4 4 4 4 4 4 4 4 4 
4 4 4 4 4 4 4 4 4 
4 4 4 4 4 4 4 4 4 
4 4 4 4 4 4 4 4 4 
4 4 4 4 4 4 4 4 4 
4 4 4 4 4 4 4 4 4 
4 4 4 4 5 5 5 5 5 
5 5 5 5 5 5 5 5 5 
5 5 5 5 5 5 5 5 5 
5 5 5 5 5 5 5 5 5 
5 5 5 5 5 5 5 5 5 
5 5 5 5 5 5 5 5 5 
5 5 5 5 5 5 5 5 5 
5 5 5 5 5 5 5 5 5 
5 5 5 5 5 5 5 5 5 
5 5 5 5 5 5 5 5 5 
5 5 5 5 5 5 5 5 5 
5 5 5 5 5 5 5 5 5 
5 5 5 5 5 5 5 5 5 
5 5 5 5 5 5 5 5 5 
5 5 5 5 5 5 5 5 5 
5 5 5 5 5 5 5 5 5 
5 5 5 5 5 5 5 5 5 
5 5 5 5 5 5 5 5 5 
5 5 5 5 5 5 5 5 5 
5 5 5 5 5 5 5 5 5 
5 5 5 5 5 5 5 5 5 
5 5 5 5 5 5 5 5 5 
5 5 5 5 5 5 5 5 5 
5 5 5 5 5 5 5 5 5 
5 5 5 5 5 5 5 5 5 
5 5 5 5 5 5 5 5 5 
5 5 5 5 5 5 5 5 5 
5 5 5 5 5 5 5 5 5 
5 5 5 5 5 5 5 5 5 
5 5 5 5 5 5 5 5 5 
5 5 5 5 5 5 5 5 5 
5 5 5 5 5 5 5 5 5 
5 5 5 5 5 5 5 5 5 
5 5 5 5 5 5 5 5 5 
5 5 5 5 5 5 5 5 5 
5 5 5 5 5 5 5 5 5 
5 5 5 5 5 5 5 5 5 
5 5 5 5 5 5 5 5 5 
5 5 5 5 5 5 5 5 5 
5 5 5 5 5 5 5 5 5 
5 5 5 5 5 5 5 5 5 
5 5 5 5 5 5 5 5 5 
5 5 5 5 5 5 5 5 5 
5 5 5 5 5 5 5 5 5 
5 5 5 5 5 5 5 5 5 
5 5 5 5 5 5 5 5 5 
5 5 5 5 5 5 5 5 5 
5 5 5 5 5 5 5 5 5 
5 5 5 5 5 5 5 5 5 
5 5 5 5 5 5 5 5 5 
5 5 5 5 5 5 5 5 5 
5 5 5 5 5 5 5 5 5 
5 5 5 5 5 5 5 5 5 
5 5 5 5 5 5 5 5 5 
5 5 5 5 5 5 5 5 5 
5 5 5 5 5 5 5 5 5 
5 5 5 5 5 5 5 5 5 
5 5 5 5 5 5 5 5 5 
5 5 5 5 5 5 5 5 5 
5 5 5 5 5 5 5 5 5 
5 5 5 5 5 5 5 5 5 
5 5 5 5 5 5 5 5 5 
5 5 5 5 5 5 5 5 5 
5 5 5 5 5 5 5 5 5 
5 5 5 5 5 5 5 5 5 
5 5 5 5 5 5 5 5 5 
5 5 5 5 5 5 5 5 5 
5 5 5 5 5 5 5 5 5 
5 5 5 5 5 5 5 5 5 
5 5 5 5 5 5 5 5 5 
5 5 5 5 5 5 5 5 5 
5 5 5 5 5 5 5 5 5 
5 5 5 5 5 5 5 5 5 
5 5 5 5 5 5 5 5 5 
5 5 5 5 5 5 5 5 5 
5 5 5 5 5 5 5 5 5 
5 5 5 5 5 5 5 5 5 
5 5 5 5 5 5 5 5 5 
5 5 5 5 5 5 5 5 5 
5 5 5 5 5 5 5 5 5 
5 5 5 5 5 5 5 5 5 
5 5 5 5 5 5 5 5 5 
5 5 5 5 5 5 5 5 5 
5 5 5 5 5 5 5 5 5 
5 5 5 5 5 5 5 5 5 
5 5 5 5 5 5 5 5 5 
5 5 5 5 5 5 5 5 5 
5 5 5 5 5 5 5 5 5 
5 5 5 5 5 5 5 5 5 
5 5 5 5 5 5 5 5 5 
5 5 5 5 5 5 5 5 5 
5 5 5 5 5 5 5 5 5 
5 5 5 5 5 5 5 5 5 
5 5 5 5 5 5 5 5 5 
5 5 5 5 5 5 5 5 5 
5 5 5 5 5 5 5 5 5 
5 5 5 5 5 5 5 5 5 
5 5 5 5 5 5 5 5 5 
5 5 5 5 5 5 5 5 5 
5 5 5 5 5 5 5 5 5 
5 5 5 5 5 5 5 5 5 
5 5 5 5 5 5 5 5 5 
5 5 5 5 5 5 5 5 5 
5 5 5 5 5 5 5 5 5 
5 5 5 5 5 5 5 5 5 
5 5 5 5 5 5 5 5 5 
5 5 5 5 5 5 5 5 5 
5 5 5 5 5 5 5 5 5 
5 5 5 5 5 5 5 5 5 
5 5 5 5 5 5 5 5 5 
5 5 5 5 5 5 5 5 5 
5 5 5 5 5 5 5 5 5 
5 5 5 5 5 5 5 5 5 
5 5 5 5 5 5 5 5 5 
5 5 5 5 5 5 5 5 5 
5 5 5 5 5 5 5 5 5 
5 5 5 5 5 5 5 5 5 
5 5 5 5 5 5 5 5 5 
5 5 5 5 5 5 5 5 5 
5 5 5 5 5 5 5 5 5 
5 5 5 5 5 5 5 5 5 
5 5 5 5 5 5 5 5 5 
5 5 5 5 5 5 5 5 5 
5 5 5 5 5 5 5 5 5 
5 5 5 5 5 5 5 5 5 
5 5 5 5 5 5 5 5 5 
5 5 5 5 5 5 5 5 5 
5 5 5 5 5 5 5 5 5 
5 5 5 5 5 5 5 5 5 
5 5 5 5 5 5 5 5 5 
5 5 5 5 5 5 5 5 5 
5 5 5 5 5 5 5 5 5 
5 5 5 5 5 5 5 5 5 
5 5 5 5 5 5 5 5 5 
5 5 5 5 5 5 5 5 5 
5 5 5 5 5 5 5 5 5 
5 5 5 5 5 5 5 5 5 
5 5 5 5 5 5 5 5 5 
5 5 5 5 5 5 5 5 5 
5 5 5 5 5 5 5 5 5 
5 5 5 5 5 5 5 5 5 
5 5 5 5 5 5 5 5 5 
5 5 5 5 5 5 5 5 5 
5 5 5 5 5 5 5 5 5 
5 5 5 5 5 5 5 5 5 
5 5 5 5 5 5 5 5 5 
5 5 5 5 5 5 5 5 5 
5 5 5 5 5 5 5 5 5 
5 5 5 5 5 5 5 5 5 
5 5 5 5 5 5 5 5 5 
5 5 5 5 5 5 5 5 5 
5 5 5 5 5 5 5 5 5 
5 5 5 5 5 5 5 5 5 
5 5 5 5 5 5 5 5 5 
5 5 5 5 5 5 5 5 5 
5 5 5 5 5 5 5 5 5 
5 5 5 5 5 5 5 5 5 
5 5 5 5 5 5 5 5 5 
5 5 5 5 5 5 5 5 5 
5 5 5 5 5 5 5 5 5 
5 5 5 5 5 5 5 5 5 
5 5 5 5 5 5 5 5 5 
5 5 5 5 5 5 5 5 5 
5 5 5 5 5 5 5 5 5 
5 5 5 5 5 5 5 5 5 
5 5 5 5 5 5 5 5 5 
5 5 5 5 5 5 5 5 5 
5 5 5 5 5 5 5 5 5 
5 5 5 5 5 5 5 5 5 
5 5 5 5 5 5 5 5 5 
5 5 5 5 5 5 5 5 5 
5 5 5 5 5 5 5 5 5 
5 5 5 5 5 5 5 5 5 
5 5 5 5 5 5 5 5 5 
5 5 5 5 5 5 5 5 5 
5 5 5 5 5 5 5 5 5 
5 5 5 5 5 5 5 5 5 
5 5 5 5 5 5 5 5 5 
5 5 5 5 5 5 5 5 5 
5 5 5 5 5 5 5 5 5 
5 5 5 5 5 5 5 5 5 
5 5 5 5 5 5 5 5 5 
5 5 5 5 5 5 5 5 5 
5 5 5 5 5 5 5 5 5 
5 5 5 5 5 5 5 5 5 
5 5 5 5 5 5 5 5 5 
5 5 5 5 5 5 5 5 5 
5 5 5 5 5 5 5 5 5 
5 5 5 5 5 5 5 5 5 
5 5 5 5 5 5 5 5 5 
5 5 5 5 5 5 5 5 5 
5 5 5 5 5 5 5 5 5 
5 5 5 5 5 5 5 5 5 
5 5 5 5 5 5 5 5 5 
5 5 5 5 5 5 5 5 5 
5 5 5 5 5 5 5 5 5 
5 5 5 5 5 5 5 5 5 
5 5 5 5 5 5 5 5 5 
5 5 5 5 5 5 5 5 5 
5 5 5 5 5 5 5 5 5 
5 5 5 5 5 5 5 5 5 
5 5 5 5 5 5 5 5 5 
5 5 5 5 5 5 5 5 5 
5 5 5 5 5 5 5 5 5 
5 5 5 5 5 5 5 5 5 
5 5 5 5 5 5 5 5 5 
5 5 5 5 5 5 5 5 5 
5 5 5 5 5 5 5 5 5 
5 5 5 5 5 5 5 5 5 
5 5 5 5 5 5 5 5 5 
5 5 5 5 5 5 5 5 5 
5 5 5 5 5 5 5 5 5 
5 5 5 5 5 5 5 5 5 
5 5 5 5 5 5 5 5 5 
5 5 5 5 5 5 5 5 5 
5 5 5 5 5 5 5 5 5 
5 5 5 5 5 5 5 5 5 
5 5 5 5 5 5 5 5 5 
5 5 5 5 5 5 5 5 5 
5 5 5 5 5 5 5 5 5 
5 5 5 5 5 5 5 5 5 
5 5 5 5 5 5 5 5 5 
5 5 5 5 5 5 5 5 5 
5 5 5 5 5 5 5 5 5 
5 5 5 5 5 5 5 5 5 
5 5 5 5 5 5 5 5 5 
5 5 5 5 5 5 5 5 5 
5 5 5 5 5 5 5 5 5 
5 5 5 5 5 5 5 5 5 
5 5 5 5 5 5 5 5 5 
5 5 5 5 5 5 5 5 5 
5 5 5 5 5 5 5 5 5 
5 5 5 5 5 5 5 5 5 
5 5 5 5 5 5 5 5 5 
5 5 5 5 5 5 5 5 5 
5 5 5 5 5 5 5 5 5 
5 5 5 5 5 5 5 5 5 
5 5 5 5 5 5 5 5 5 
5 5 5 5 5 5 5 5 5 
5 5 5 5 5 5 5 5 5 
5 5 5 5 5 5 5 5 5 
5 5 5 5 5 5 5 5 5 
5 5 5 5 5 5 5 5 5 
5 5 5 5 5 5 5 5 5 
5 5 5 5 5 5 5 5 5 
5 5 5 5 5 5 5 5 5 
5 5 5 5 5 5 5 5 5 
5 5 5 5 5 5 5 5 5 
5 5 5 5 5 5 5 5 5 
5 5 5 5 5 5 5 5 5 

METADATA
INFORMATION 1
NAME DISCRETE_VALUE_SAMPLE_PARAMETERS LOCATION vtkAbstractArray
DATA 2 0 0 

NORMALS normals float
-0.917975 0.38038 -0.112395 -0.951743 0.270696 -0.144598 -0.945017 0.32681 -0.0117259 
-0.835947 -0.443959 -0.322635 -0.402891 0.525612 0.749274 -0.811533 -0.483748 -0.327723 
-0.680989 -0.188267 0.707678 -0.555776 -0.804862 -0.20811 -0.400637 -0.755573 0.518266 
-0.529906 -0.833233 -0.157866 -0.311659 -0.912766 0.264058 -0.331249 -0.919976 0.209568 
-0.310073 -0.922603 0.229475 -0.499569 -0.807757 -0.312984 -0.165679 -0.950591 0.26254 
-0.168249 -0.979297 0.112561 -0.53965 -0.764618 -0.352332 -0.234109 -0.972181 -0.00762255 
-0.645643 -0.620283 -0.445415 -0.498804 -0.742359 -0.447323 -0.40181 -0.893661 -0.199798 
-0.391529 -0.692773 -0.605616 -0.337478 -0.829672 -0.444694 -0.0159684 -0.895281 -0.445215 
0.157175 -0.928989 -0.335077 0.144367 -0.918651 -0.367749 0.187329 -0.929449 -0.317855 
0.394845 -0.911677 -0.113768 0.364718 -0.916169 0.166177 0.39106 -0.918083 0.0647706 
0.253386 -0.860349 0.442262 0.388091 -0.918193 0.0794156 0.272726 -0.86876 0.413373 
0.310383 -0.879498 0.360757 0.163779 -0.877489 0.450765 0.302885 -0.817626 0.489641 
0.151052 -0.838874 0.522947 0.330273 -0.782637 0.527635 0.20099 -0.813445 0.545811 
0.343669 -0.735181 0.584295 0.295067 -0.714575 0.634285 0.304892 -0.806669 0.506286 
0.157053 -0.66852 0.726922 0.26111 -0.854851 0.448388 0.0361251 -0.841793 0.53859 
0.0313094 -0.902882 0.428746 0.00409324 -0.838722 0.544545 0.147154 -0.85571 0.496092 
-0.0722619 -0.693148 0.717164 0.0617474 -0.750939 0.657479 0.0308272 -0.692672 0.720594 
0.199342 -0.726626 0.657478 0.137627 -0.599248 0.788645 0.176938 -0.666929 0.723808 
0.106671 -0.552586 0.826602 0.162369 -0.562266 0.810859 0.153425 -0.517031 0.842104 
0.182948 -0.559551 0.808352 0.0845863 -0.41906 0.90401 0.175882 -0.548233 0.817622 
0.173925 -0.585181 0.792031 0.191757 -0.609612 0.769157 0.196292 -0.625483 0.755143 
0.289109 -0.669329 0.684409 0.243729 -0.697597 0.673761 0.327809 -0.720174 0.611466 
0.322021 -0.756134 0.569705 0.401376 -0.790245 0.463044 0.470044 -0.707663 0.527514 
0.472974 -0.707693 0.524848 0.474614 -0.704617 0.5275 0.645406 -0.642325 0.413365 
0.85544 -0.166729 0.490331 0.877304 0.0536316 0.476929 0.804379 0.513187 0.299356 
0.783289 0.55774 0.274563 0.726035 0.61499 0.307669 0.702053 0.621613 0.347445 
0.730257 0.604491 0.318301 0.707143 0.615407 0.348171 0.770598 0.57306 0.278892 
0.691254 0.635757 0.343483 0.696945 0.631637 0.339563 0.692769 0.64345 0.325642 
0.704735 0.64571 0.29395 0.709328 0.640646 0.293985 0.741836 0.670305 -0.0192485 
0.841874 0.53453 -0.0743327 0.721238 0.228438 -0.653936 0.62616 -0.228569 -0.745439 
0.316237 0.209701 -0.925213 0.36873 -0.286529 -0.884273 0.292378 -0.233857 -0.927268 
0.335465 -0.345781 -0.876298 0.307351 -0.318238 -0.896805 0.348415 -0.413157 -0.841373 
0.351631 -0.427668 -0.83274 0.36994 -0.510456 -0.776259 0.34459 -0.464 -0.816065 
0.353031 -0.513313 -0.782227 0.3338 -0.465486 -0.819695 0.291444 -0.501055 -0.814865 
0.24453 -0.470943 -0.847595 0.248569 -0.505527 -0.82623 0.0471589 -0.223027 -0.973671 
0.1712 -0.443054 -0.879997 0.115044 -0.344997 -0.931527 0.159767 -0.422275 -0.892277 
0.139831 -0.377666 -0.915323 0.226327 -0.464903 -0.855945 0.350947 -0.0778169 -0.933156 
0.416359 -0.475351 -0.775039 0.628438 0.085665 -0.773128 0.741387 -0.0384129 -0.669978 
0.644321 0.144679 -0.750945 0.780604 -0.107351 -0.615737 0.710329 0.042946 -0.702558 
0.789299 -0.177252 -0.587868 0.746369 -0.53912 -0.390235 0.711298 -0.697978 -0.0829596 
0.69255 -0.72086 -0.0271196 0.695191 -0.717838 -0.0376598 0.641887 -0.764282 0.0620789 
0.638807 -0.605854 -0.474201 0.391952 -0.872243 -0.292516 0.480915 -0.772553 -0.414587 
0.380098 -0.837861 -0.391811 0.49323 -0.572574 -0.654892 0.361552 -0.600464 -0.713248 
0.278113 -0.645681 -0.71116 0.212764 -0.554318 -0.804651 0.308904 -0.644832 -0.699121 
0.301874 -0.613186 -0.729983 0.337953 -0.635673 -0.694051 0.40635 -0.611942 -0.678533 
0.44209 -0.722784 -0.531169 0.454929 -0.752776 -0.475781 0.449834 -0.780812 -0.433569 
0.452191 -0.840627 -0.29811 0.422181 -0.875684 -0.234396 0.455607 -0.889326 0.038997 
0.394992 -0.917528 0.0460854 0.392168 -0.917641 0.0643424 0.39106 -0.918083 0.0647706 
0.389033 -0.917727 0.0801889 0.297591 -0.861679 0.411034 0.310675 -0.861946 0.400663 
0.285083 -0.818417 0.498919 0.229431 -0.735965 0.63696 0.216107 -0.741785 0.634864 
-0.937784 0.250688 -0.240241 -0.635686 0.0459479 -0.770579 -0.533103 -0.408517 -0.740888 
-0.525152 -0.496035 -0.691494 -0.552961 -0.736403 -0.389801 -0.537231 -0.577413 -0.614798 
-0.507503 -0.798795 -0.323059 -0.514475 -0.789495 -0.334684 -0.324617 -0.923086 -0.206243 
-0.585299 -0.669344 -0.457607 -0.479299 -0.633667 -0.607239 -0.496459 -0.615302 -0.612316 
-0.487667 -0.614937 -0.619705 -0.612148 -0.0819369 -0.786487 -0.0478486 -0.785423 -0.617108 
-0.121214 -0.615779 -0.778539 0.27613 -0.723189 -0.633048 -0.284444 -0.234069 -0.929679 
0.239513 -0.560369 -0.792856 -0.361873 0.377527 -0.852362 0.169432 0.345719 -0.922915 
-0.32355 0.488747 -0.810211 0.147591 0.63235 -0.760493 0.138476 0.662826 -0.735858 
0.356116 0.253004 -0.899539 0.287813 0.575425 -0.765539 0.22528 0.436172 -0.871208 
0.189425 0.63686 -0.747347 0.480102 0.383388 -0.788996 0.225856 0.617719 -0.753268 
0.407805 0.487825 -0.77183 0.344742 0.557654 -0.755099 0.656442 0.0976019 -0.748036 
0.565355 0.443425 -0.69552 0.586358 0.434928 -0.68339 0.550218 0.47968 -0.683496 
0.39116 0.133165 -0.910638 0.401419 0.602786 -0.689574 0.144467 0.603548 -0.784129 
0.309523 0.730672 -0.608535 0.245059 0.779475 -0.576511 0.261676 0.701773 -0.662601 
0.267102 0.769958 -0.5795 0.327704 0.737225 -0.590855 0.36283 0.761943 -0.536467 
0.144465 0.821774 -0.551196 0.190128 0.824927 -0.532303 0.146268 0.843135 -0.517425 
0.284403 0.865529 -0.412279 0.226274 0.914337 -0.335839 0.0858584 0.824186 -0.559774 
-0.00329753 0.788952 -0.614446 0.0292549 0.773383 -0.633263 -0.0479951 0.736176 -0.675086 
-0.231833 0.574104 -0.785276 -0.27823 0.607552 -0.743954 -0.325167 0.551182 -0.768417 
-0.340875 0.591709 -0.730538 -0.351764 0.588649 -0.727842 -0.396324 0.650532 -0.647869 
-0.351764 0.588649 -0.727842 -0.396324 0.650532 -0.647869 -0.351764 0.588649 -0.727842 
-0.351764 0.588649 -0.727842 -0.325167 0.551182 -0.768417 -0.351764 0.588649 -0.727842 
-0.296868 0.557888 -0.775004 -0.338854 0.592267 -0.731025 -0.335392 0.593215 -0.731853 
-0.389747 0.65707 -0.645257 -0.318262 0.569796 -0.757655 -0.349532 0.718484 -0.601338 
-0.311968 0.573086 -0.757792 -0.138033 0.675615 -0.724218 -0.0843844 0.65924 -0.747183 
-0.0806366 0.697927 -0.711615 0.180055 0.767408 -0.615357 0.496592 0.822059 -0.278595 
0.397429 0.776519 -0.488946 0.637533 0.76171 0.115536 0.61079 0.770322 -0.183139 
0.738496 0.640826 0.20968 -0.307398 0.592851 0.744335 -0.343403 0.511679 0.787565 
-0.362143 -0.0827019 0.928447 -0.31401 -0.201178 0.927861 -0.227299 -0.595469 0.770553 
-0.425165 -0.528591 0.734729 -0.232488 -0.698411 0.676884 -0.434602 -0.721796 0.538639 
-0.335914 -0.845123 0.415847 -0.536809 -0.741901 0.40177 -0.684357 -0.648077 -0.334143 
-0.396294 -0.745096 0.536454 -0.39174 -0.747893 0.535907 -0.266233 0.916978 0.297106 
-0.406207 0.883733 0.232403 -0.274444 0.87014 0.409312 -0.283194 0.761137 0.583499 
-0.520426 0.354273 0.776947 -0.741515 -0.091596 0.664654 -0.48406 -0.484969 0.728348 
-0.487161 -0.522871 0.699485 -0.498347 -0.500905 0.707633 -0.578976 -0.282184 0.764957 
-0.565609 -0.365085 0.739459 -0.5977 -0.312172 0.738447 -0.670935 -0.334054 0.662008 
-0.507195 -0.576604 0.640532 -0.531161 -0.63878 0.556622 -0.379922 -0.646515 0.661572 
0.0254795 -0.719911 0.693599 -0.00272641 -0.688484 0.725246 0.0906162 -0.761231 0.642119 
0.139306 -0.813196 0.565072 0.166195 -0.804257 0.57057 0.221859 -0.860823 0.457999 
0.22381 -0.817186 0.531146 -0.546747 0.661736 -0.513004 -0.508266 0.733627 -0.451063 
-0.532833 0.640041 -0.553567 -0.565646 0.0325748 -0.824004 -0.518949 -0.393617 -0.758787 
-0.588867 -0.357916 -0.72466 -0.607481 -0.429597 -0.668142 -0.627507 -0.399264 -0.668448 
-0.0645308 0.897639 0.435983 -0.17427 0.867426 0.466049 -0.448919 0.888372 0.0962586 
-0.156051 0.987546 -0.02003 -0.113566 0.967009 0.228028 0.000793574 0.993169 0.116684 
-0.301924 0.936797 -0.176787 -0.0990425 0.887268 -0.450495 -0.0540581 0.953732 -0.295758 
-0.150754 0.722821 -0.674391 -0.0926974 0.806641 -0.583727 0.158935 0.758882 -0.631536 
0.0794547 0.675099 -0.733436 0.230667 0.57982 -0.78141 0.0956686 0.662679 -0.742768 
0.204163 0.645408 -0.736047 0.103005 0.666636 -0.738232 -0.383014 0.477145 -0.79097 
-0.473856 0.04483 -0.87946 -0.529167 -0.284802 -0.799293 -0.355468 0.546513 -0.758265 
-0.358585 0.47741 -0.802182 -0.249961 0.578854 -0.776175 -0.389506 0.367172 -0.844672 